6
ch3oh_ch3sch3_cs, factor= 1.0, energy= -5.69
 O        -0.431955        1.777778        0.000000
 C         0.311098        2.982827        0.000000
 H        -0.403002        3.801574        0.000000
 H         0.941415        3.082379        0.886188
 H         0.941415        3.082379       -0.886188
 H         0.200985        1.046161        0.000000
