15
ch3oh_ch3sch3_cs, factor= 1.0, energy= -5.69
 S         0.691831       -1.304247        0.000000
 C        -0.486207       -1.387475        1.360941
 C        -0.486207       -1.387475       -1.360941
 H        -1.035340       -2.326136        1.332261
 H         0.080605       -1.338205        2.287319
 H        -1.175349       -0.546625        1.319382
 H        -1.035340       -2.326136       -1.332261
 H        -1.175349       -0.546625       -1.319382
 H         0.080605       -1.338205       -2.287319
 O        -0.431955        1.777778        0.000000
 C         0.311098        2.982827        0.000000
 H        -0.403002        3.801574        0.000000
 H         0.941415        3.082379        0.886188
 H         0.941415        3.082379       -0.886188
 H         0.200985        1.046161        0.000000