15
ch3oh_ch3sch3_cs, factor= 0.95, energy= -5.59
S         0.691831       -1.304247        0.000000
C        -0.486207       -1.387475        1.360941
C        -0.486207       -1.387475       -1.360941
H        -1.035340       -2.326136        1.332261
H         0.080605       -1.338205        2.287319
H        -1.175349       -0.546625        1.319382
H        -1.035340       -2.326136       -1.332261
H        -1.175349       -0.546625       -1.319382
H         0.080605       -1.338205       -2.287319
O        -0.407412        1.660258        0.000000
C         0.335640        2.865307        0.000000
H        -0.378460        3.684054        0.000000
H         0.965957        2.964858        0.886188
H         0.965957        2.964858       -0.886188
H         0.225527        0.928640        0.000000