15
ch3oh_ch3sch3_cs, factor= 1.25, energy= -3.74
 S         0.691831       -1.304247        0.000000
 C        -0.486207       -1.387475        1.360941
 C        -0.486207       -1.387475       -1.360941
 H        -1.035340       -2.326136        1.332261
 H         0.080605       -1.338205        2.287319
 H        -1.175349       -0.546625        1.319382
 H        -1.035340       -2.326136       -1.332261
 H        -1.175349       -0.546625       -1.319382
 H         0.080605       -1.338205       -2.287319
 O        -0.554666        2.365380        0.000000
 C         0.188386        3.570429        0.000000
 H        -0.525714        4.389176        0.000000
 H         0.818703        3.669981        0.886188
 H         0.818703        3.669981       -0.886188
 H         0.078273        1.633762        0.000000