15
ch3oh_ch3sch3_cs, factor= 1.5, energy= -1.98
S         0.691831       -1.304247        0.000000
C        -0.486207       -1.387475        1.360941
C        -0.486207       -1.387475       -1.360941
H        -1.035340       -2.326136        1.332261
H         0.080605       -1.338205        2.287319
H        -1.175349       -0.546625        1.319382
H        -1.035340       -2.326136       -1.332261
H        -1.175349       -0.546625       -1.319382
H         0.080605       -1.338205       -2.287319
O        -0.677378        2.952981        0.000000
C         0.065675        4.158031        0.000000
H        -0.648426        4.976778        0.000000
H         0.695991        4.257583        0.886188
H         0.695991        4.257583       -0.886188
H        -0.044439        2.221364        0.000000