18
ch3sh_benzene_cs, factor= 0.95, energy= -3.32
S         0.779515        2.257972        0.000000
C        -1.015571        2.488997        0.000000
H         0.754913        0.923350        0.000000
H        -1.190627        3.561804        0.000000
H        -1.466354        2.058713       -0.889264
H        -1.466354        2.058713        0.889264
C         0.645552       -1.456594       -1.207526
C        -0.707004       -1.118752       -1.207375
C        -1.383614       -0.951778        0.000000
C        -0.707004       -1.118752        1.207375
C         0.645552       -1.456594        1.207526
C         1.321506       -1.627074        0.000000
H        -1.230819       -0.986751       -2.144286
H        -2.433800       -0.692984        0.000000
H        -1.230819       -0.986751        2.144286
H         1.170911       -1.583612        2.144045
H         2.370970       -1.887846        0.000000
H         1.170911       -1.583612       -2.144045