12
ch3sh_dimer, factor= 1.25, energy= -1.82
C        -0.922452        2.522239        0.955304
S         0.484531        2.566417       -0.183593
H        -1.355904        1.531429        0.847439
H        -1.666375        3.267044        0.691105
H        -0.601729        2.658834        1.983424
H         0.890256        3.802689        0.106533
C         0.896802       -1.790414        0.800079
S        -0.430447       -1.911330       -0.426467
H         0.530684       -2.284804        1.695862
H         1.120799       -0.753008        1.029395
H         1.792823       -2.300782        0.461195
H         0.177021       -1.201173       -1.377499