21
ch3sch3_benzene_c2v, factor= 0.9, energy= -0.23
S         0.000000        0.000000       -1.639862
C         0.000000       -1.357444       -2.822962
C         0.000000        1.357444       -2.822962
H        -0.889712        1.330259       -3.449780
H         0.000000        2.284255       -2.254048
H         0.889712        1.330259       -3.449780
H         0.889712       -1.330259       -3.449780
H         0.000000       -2.284255       -2.254048
H        -0.889712       -1.330259       -3.449780
C         0.000000        1.392995        1.516342
C        -1.207016        0.696489        1.517033
C        -1.207016       -0.696489        1.517033
C         0.000000       -1.392995        1.516342
C         1.207016       -0.696489        1.517033
C         1.207016        0.696489        1.517033
H        -2.143728        1.236997        1.513977
H        -2.143728       -1.236997        1.513977
H         0.000000       -2.474747        1.516340
H         2.143728       -1.236997        1.513977
H         2.143728        1.236997        1.513977
H         0.000000        2.474747        1.516340