18
ch3sh_benzene_cs, factor= 1.0, energy= -3.50
S         0.779515        2.257972        0.000000
C        -1.015571        2.488997        0.000000
H         0.754913        0.923350        0.000000
H        -1.190627        3.561804        0.000000
H        -1.466354        2.058713       -0.889264
H        -1.466354        2.058713        0.889264
C         0.604208       -1.572965       -1.207526
C        -0.748348       -1.235123       -1.207375
C        -1.424958       -1.068149        0.000000
C        -0.748348       -1.235123        1.207375
C         0.604208       -1.572965        1.207526
C         1.280162       -1.743444        0.000000
H        -1.272163       -1.103122       -2.144286
H        -2.475144       -0.809355        0.000000
H        -1.272163       -1.103122        2.144286
H         1.129567       -1.699983        2.144045
H         2.329626       -2.004217        0.000000
H         1.129567       -1.699983       -2.144045