21
ch3sch3_benzene_c2v, factor= 1.05, energy= -1.09
S         0.000000        0.000000       -1.639862
C         0.000000       -1.357444       -2.822962
C         0.000000        1.357444       -2.822962
H        -0.889712        1.330259       -3.449780
H         0.000000        2.284255       -2.254048
H         0.889712        1.330259       -3.449780
H         0.889712       -1.330259       -3.449780
H         0.000000       -2.284255       -2.254048
H        -0.889712       -1.330259       -3.449780
C         0.000000        1.392995        2.042376
C        -1.207016        0.696489        2.043067
C        -1.207016       -0.696489        2.043067
C         0.000000       -1.392995        2.042376
C         1.207016       -0.696489        2.043067
C         1.207016        0.696489        2.043067
H        -2.143728        1.236997        2.040011
H        -2.143728       -1.236997        2.040011
H         0.000000       -2.474747        2.042374
H         2.143728       -1.236997        2.040011
H         2.143728        1.236997        2.040011
H         0.000000        2.474747        2.042374