18
ch3sh_benzene_cs, factor= 1.1, energy= -3.29
S         0.779515        2.257972        0.000000
C        -1.015571        2.488997        0.000000
H         0.754913        0.923350        0.000000
H        -1.190627        3.561804        0.000000
H        -1.466354        2.058713       -0.889264
H        -1.466354        2.058713        0.889264
C         0.521520       -1.805707       -1.207526
C        -0.831036       -1.467865       -1.207375
C        -1.507646       -1.300891        0.000000
C        -0.831036       -1.467865        1.207375
C         0.521520       -1.805707        1.207526
C         1.197474       -1.976186        0.000000
H        -1.354851       -1.335864       -2.144286
H        -2.557832       -1.042096        0.000000
H        -1.354851       -1.335864        2.144286
H         1.046879       -1.932724        2.144045
H         2.246938       -2.236959        0.000000
H         1.046879       -1.932724       -2.144045