18
ch3sh_benzene_cs, factor= 0.9, energy= -2.80
S         0.779515        2.257972        0.000000
C        -1.015571        2.488997        0.000000
H         0.754913        0.923350        0.000000
H        -1.190627        3.561804        0.000000
H        -1.466354        2.058713       -0.889264
H        -1.466354        2.058713        0.889264
C         0.686896       -1.340223       -1.207526
C        -0.665660       -1.002381       -1.207375
C        -1.342270       -0.835407        0.000000
C        -0.665660       -1.002381        1.207375
C         0.686896       -1.340223        1.207526
C         1.362850       -1.510703        0.000000
H        -1.189475       -0.870380       -2.144286
H        -2.392456       -0.576613        0.000000
H        -1.189475       -0.870380        2.144286
H         1.212255       -1.467241        2.144045
H         2.412314       -1.771475        0.000000
H         1.212255       -1.467241       -2.144045