12
ch3sh_dimer, factor= 2.0, energy= -0.23
C        -0.737946        4.782794        1.671648
S         0.669037        4.826972        0.532751
H        -1.171398        3.791983        1.563783
H        -1.481869        5.527598        1.407449
H        -0.417223        4.919389        2.699768
H         1.074763        6.063243        0.822877
C         0.896802       -1.790414        0.800079
S        -0.430447       -1.911330       -0.426467
H         0.530684       -2.284804        1.695862
H         1.120799       -0.753008        1.029395
H         1.792823       -2.300782        0.461195
H         0.177021       -1.201173       -1.377499