12
ch3sh_dimer, factor= 1.05, energy= -2.99
C        -0.971654        1.919425        0.764279
S         0.435329        1.963603       -0.374618
H        -1.405106        0.928615        0.656414
H        -1.715576        2.664229        0.500080
H        -0.650931        2.056020        1.792399
H         0.841055        3.199875       -0.084492
C         0.896802       -1.790414        0.800079
S        -0.430447       -1.911330       -0.426467
H         0.530684       -2.284804        1.695862
H         1.120799       -0.753008        1.029395
H         1.792823       -2.300782        0.461195
H         0.177021       -1.201173       -1.377499