18
ch3sh_benzene_cs, factor= 1.25, energy= -2.51
S         0.779515        2.257972        0.000000
C        -1.015571        2.488997        0.000000
H         0.754913        0.923350        0.000000
H        -1.190627        3.561804        0.000000
H        -1.466354        2.058713       -0.889264
H        -1.466354        2.058713        0.889264
C         0.397488       -2.154820       -1.207526
C        -0.955068       -1.816977       -1.207375
C        -1.631678       -1.650004        0.000000
C        -0.955068       -1.816977        1.207375
C         0.397488       -2.154820        1.207526
C         1.073442       -2.325299        0.000000
H        -1.478883       -1.684977       -2.144286
H        -2.681865       -1.391209        0.000000
H        -1.478883       -1.684977        2.144286
H         0.922847       -2.281837        2.144045
H         2.122905       -2.586072        0.000000
H         0.922847       -2.281837       -2.144045