18
ch3sh_benzene_cs, factor= 2.0, energy= -0.45
S         0.779515        2.257972        0.000000
C        -1.015571        2.488997        0.000000
H         0.754913        0.923350        0.000000
H        -1.190627        3.561804        0.000000
H        -1.466354        2.058713       -0.889264
H        -1.466354        2.058713        0.889264
C        -0.222673       -3.900384       -1.207526
C        -1.575229       -3.562541       -1.207375
C        -2.251839       -3.395568        0.000000
C        -1.575229       -3.562541        1.207375
C        -0.222673       -3.900384        1.207526
C         0.453281       -4.070864        0.000000
H        -2.099044       -3.430541       -2.144286
H        -3.302025       -3.136773        0.000000
H        -2.099044       -3.430541        2.144286
H         0.302686       -4.027402        2.144045
H         1.502744       -4.331636        0.000000
H         0.302686       -4.027402       -2.144045