18
ch3sh_benzene_cs, factor= 1.05, energy= -3.46
S         0.779515        2.257972        0.000000
C        -1.015571        2.488997        0.000000
H         0.754913        0.923350        0.000000
H        -1.190627        3.561804        0.000000
H        -1.466354        2.058713       -0.889264
H        -1.466354        2.058713        0.889264
C         0.562864       -1.689336       -1.207526
C        -0.789692       -1.351494       -1.207375
C        -1.466302       -1.184520        0.000000
C        -0.789692       -1.351494        1.207375
C         0.562864       -1.689336        1.207526
C         1.238818       -1.859815        0.000000
H        -1.313507       -1.219493       -2.144286
H        -2.516488       -0.925725        0.000000
H        -1.313507       -1.219493        2.144286
H         1.088223       -1.816354        2.144045
H         2.288281       -2.120588        0.000000
H         1.088223       -1.816354       -2.144045