4
 ch3sh_nh3_cs, factor= 1.0, energy= -2.95
 N        -0.086871       -2.664865        0.000000
 H         0.333975       -3.105098       -0.808104
 H         0.333975       -3.105098        0.808104
 H        -1.056859       -2.952825        0.000000
