3
 ch3sh_h2o_cs, factor= 1.0, energy= -2.36
 O        -0.075612       -2.593240        0.000000
 H         0.069290       -3.167521       -0.754927
 H         0.069290       -3.167521        0.754927
