42
HF/6-31G**  Standard Conv   Energy: -984.61365898702
  C         9.4485074671      -.4242123318      7.1331473839 
  H         9.1292075331     -1.4301731107      7.3722596857 
  H        10.5196740088      -.4115176071      6.9716215186 
  H         9.1984893225       .2207014663      7.9687408540 
  C         8.6697930483       .0507908070      5.9348585183 
  O         7.4798254491      -.1502765336      5.8276183865 
  N         9.3586282077       .7276487791      4.9923880339 
  H        10.2858378713      1.0112566539      5.2073519209 
  C         8.7217220210      1.3518594415      3.8392268675 
  H         9.5006811486      1.9263116859      3.3546488415 
  C         8.1912410873       .3246703635      2.8406561606 
  H         7.7362206737       .8227096842      1.9907513899 
  H         9.0173532149      -.2764137257      2.4783280987 
  H         7.4687769014      -.3427837335      3.2908714028 
  C         7.7360040134      2.4310383320      4.3156830132 
  O         8.1654218893      3.4420813540      4.8012104822 
  N         6.4126333358      2.2097021186      4.1556247584 
  H         6.1102811439      1.2861285215      3.9476636946 
  C         5.4421412592      3.1651289482      4.6501861182 
  H         5.7567283700      4.1517672409      4.3434997608 
  C         4.0601297211      2.8614754239      4.0730594174 
  H         3.3448499636      3.5875188461      4.4371557148 
  H         4.0883469085      2.9084511109      2.9901518945 
  H         3.7216116619      1.8721250963      4.3688917835 
  C         5.3532489038      3.2422114866      6.1754576510 
  O         4.9289483233      4.2505139398      6.6884034033 
  N         5.6962029243      2.1472102928      6.8733550118 
  H         6.1532837249      1.3876505620      6.4142687372 
  C         5.6954019072      2.1320446730      8.3302316087 
  H         4.9153119027      2.8075883795      8.6531724770 
  C         5.4218683651       .7268183361      8.8445608760 
  H         5.4395630604       .7126335665      9.9280630805 
  H         4.4455500586       .3977407800      8.5057641880 
  H         6.1711380911       .0329818803      8.4870450446 
  C         7.0480410121      2.6654870540      8.8192290112 
  O         7.9381959110      1.9284697428      9.1662188945 
  N         7.1613267432      4.0042909431      8.8018305034 
  H         6.4432259511      4.5167348006      8.3367456706 
  C         8.4374743506      4.6507614070      9.0230478866 
  H         9.0997290447      4.5368955336      8.1700874226 
  H         8.2677835161      5.7055978565      9.1965167206 
  H         8.9158346742      4.2227192287      9.8923872424 
