42
HF/6-31G**  Standard Conv   Energy: -984.60983837891
  C         7.5572326240      -.9679819225      1.2846432819 
  H         6.7771364929     -1.4817273574       .7426391034 
  H         7.2007854453       .0047156734      1.6070360979 
  H         8.4073450216      -.8134788010       .6273036764 
  C         7.9704131382     -1.8160544873      2.4659428142 
  O         7.5850609473     -2.9433814631      2.6241465086 
  N         8.8232968784     -1.2215519122      3.3328065755 
  H         9.1039438037      -.2742568813      3.2155704558 
  C         9.2893609376     -1.8995769059      4.5157129270 
  H         8.4652480589     -2.4677992116      4.9323086401 
  C        10.4521685276     -2.8583060246      4.2175321174 
  H        10.7578189915     -3.4004411836      5.1073644483 
  H        10.1323736453     -3.5770237525      3.4751994040 
  H        11.3054990122     -2.3092106757      3.8325317814 
  C         9.7307709779      -.8360665983      5.5125985372 
  O        10.0111989202       .2835388911      5.1640147534 
  N         9.8558937833     -1.2373203647      6.7969423360 
  H         9.4782013529     -2.1219612832      7.0518680618 
  C        10.1277488639      -.2805459498      7.8610856734 
  H         9.4754792881       .5752847083      7.7451304737 
  C         9.8799614246      -.9330168202      9.2201759200 
  H        10.0819899662      -.2163771454     10.0043892447 
  H         8.8473283270     -1.2562073379      9.3043752084 
  H        10.5274956807     -1.7932378313      9.3642752776 
  C        11.5385903886       .3088200936      7.8288146904 
  O        11.7496138614      1.3266186164      8.4286148397 
  N        12.4811074699      -.3766770246      7.1515322291 
  H        12.2178729767     -1.2272216401      6.7108568565 
  C        13.8536491900       .0741308546      7.0221288232 
  H        13.9518193052       .9365199816      7.6680535068 
  C        14.8348244928     -1.0077449491      7.4686834200 
  H        15.8499090845      -.6548031718      7.3597932886 
  H        14.6503144520     -1.2654307947      8.5055571141 
  H        14.7253122184     -1.9058787901      6.8659893104 
  C        14.2001842307       .5671432040      5.6118367370 
  O        15.3523553433       .7271496348      5.3031198362 
  N        13.1794758640       .8155362403      4.7733113488 
  H        12.2436867606       .7889710365      5.1080947044 
  C        13.4262834460      1.4022566245      3.4732086130 
  H        13.7854038814      2.4229365936      3.5536009836 
  H        14.1678854001       .8249172528      2.9378860247 
  H        12.4992411192      1.3973351502      2.9145923703 
