42
HF/6-31G**  Standard Conv   Energy: -984.61260963857
  C         9.9012314693      1.8398381655       .4547435724 
  H         9.0318550773      2.2824864890      -.0110340164 
  H        10.5125430731      2.6135305860       .9042391513 
  H        10.4835526373      1.3438266772      -.3154295688 
  C         9.4402840748       .8040389676      1.4546565651 
  O         8.4476347261       .1469642145      1.2826438646 
  N        10.2310466834       .6436048841      2.5382666869 
  H        11.0370363132      1.2087591391      2.6810488758 
  C         9.9215769579      -.3185479604      3.5663258502 
  H         8.8493821194      -.3168557483      3.7234355664 
  C        10.3680147936     -1.7385222493      3.1886781266 
  H        10.1073188815     -2.4562123502      3.9602970092 
  H         9.8749357694     -2.0280199914      2.2702486550 
  H        11.4419706700     -1.7680111078      3.0377753110 
  C        10.6261855242       .1309101220      4.8399369641 
  O        11.5899883480       .8591733671      4.8030696435 
  N        10.1335211868      -.3585580588      5.9912114396 
  H         9.3460954194      -.9658615231      5.9634523606 
  C        10.6871428387      -.0185452782      7.2967023335 
  H        11.0880099292       .9837752199      7.2145739678 
  C         9.5949132833      -.0581478087      8.3548975550 
  H         9.9983397906       .2184454163      9.3203904634 
  H         8.8044764185       .6366563869      8.0935565649 
  H         9.1826132922     -1.0556449990      8.4497199887 
  C        11.8418816028      -.9671644015      7.6479625133 
  O        11.7292140821     -1.8101231324      8.5048341581 
  N        12.9628850792      -.7864656820      6.9325948005 
  H        12.9744735737      -.0656978264      6.2423530317 
  C        14.1215133392     -1.6655030582      7.0436066938 
  H        13.7516518893     -2.6443134484      7.3226731744 
  C        14.8488007118     -1.7410936324      5.7094174140 
  H        15.6979448323     -2.4088409653      5.7825202019 
  H        14.1768110903     -2.1108629356      4.9421634993 
  H        15.2236549320      -.7672711701      5.4196819790 
  C        15.0519724505     -1.1643325260      8.1579573221 
  O        16.0903892613      -.6092058518      7.9164877531 
  N        14.6103773098     -1.3977481012      9.4077507194 
  H        13.6895813661     -1.7609892407      9.5203655203 
  C        15.3221556191      -.8884348821     10.5595543024 
  H        15.2344232885       .1904172521     10.6468874145 
  H        14.9132514306     -1.3469260788     11.4507722674 
  H        16.3719480443     -1.1365486173     10.4848470589 
