42
HF/6-31G**  Standard Conv   Energy: -984.60956306678
  C         5.6480326327      2.6908060360      5.8600198697 
  H         5.6852349668      2.9226886921      4.8048419955 
  H         5.6862500297      1.6119737963      5.9755039476 
  H         4.7219128880      3.0568633130      6.2863807253 
  C         6.8656183161      3.2730588730      6.5304223309 
  O         7.9331732761      3.3480783559      5.9702947772 
  N         6.7132612280      3.6894167509      7.8084804513 
  H         5.8960328795      3.4105318683      8.3020557197 
  C         7.8704599038      4.0751229175      8.5899591089 
  H         8.3879947653      4.8571738002      8.0487845691 
  C         7.4308449766      4.5943933581      9.9557635362 
  H         8.2912207556      4.9153767020     10.5323162918 
  H         6.7624361481      5.4397853420      9.8373481669 
  H         6.9259058297      3.8128819241     10.5122369470 
  C         8.7894641603      2.8636449023      8.7683009527 
  O         8.3515676904      1.8290672418      9.2058385605 
  N        10.0747877397      3.0290220187      8.4125627053 
  H        10.3196359363      3.8660380695      7.9368606718 
  C        11.0551618320      1.9484603829      8.4515719106 
  H        11.9360563337      2.3387031518      7.9498493849 
  C        11.4397581991      1.5543473963      9.8746465995 
  H        12.2131595693       .7999199324      9.8494233859 
  H        11.8078393043      2.4270378636     10.4039319826 
  H        10.5866902702      1.1522778535     10.4032990869 
  C        10.6291931059       .7242200051      7.6236451738 
  O        11.0118427207      -.3718075264      7.9283661477 
  N         9.8732183329       .9750393385      6.5363229685 
  H         9.5394978349      1.8980974838      6.3745330889 
  C         9.4107704804      -.0518749969      5.6156460454 
  H         8.8406891109       .4880675751      4.8653681256 
  C        10.5470840253      -.7881957945      4.9076517114 
  H        10.1364215082     -1.4650669978      4.1718701620 
  H        11.1872136267      -.0664000757      4.4104260638 
  H        11.1378152907     -1.3556607925      5.6122782560 
  C         8.3968228839     -1.0349531782      6.2162252870 
  O         8.1580020296     -2.0660894717      5.6450502260 
  N         7.7170600892      -.6385964733      7.3116230266 
  H         8.0737907413       .1077731652      7.8641457750 
  C         6.7960603965     -1.5542494345      7.9519569201 
  H         7.3061453883     -2.4196565305      8.3624508539 
  H         6.2939854924     -1.0280217429      8.7539970183 
  H         6.0610458655     -1.9030462166      7.2391748965 
