42
HF/6-31G**  Standard Conv   Energy: -984.61061566705
  C        11.7455138379     -1.1663863413      2.7250940764 
  H        11.9694363703     -2.0596509420      2.1591818585 
  H        11.9936657319      -.2890110748      2.1395563569 
  H        12.3582945073     -1.1693779157      3.6207714655 
  C        10.2930765536     -1.2043953415      3.1374611166 
  O         9.7368780829     -2.2396893171      3.4069036110 
  N         9.6662996213      -.0101760974      3.2172736784 
  H        10.1473429514       .8136262559      2.9381193486 
  C         8.3045333951       .1316088987      3.7135280471 
  H         8.1526386636      -.6502935750      4.4463946848 
  C         8.1161330969      1.4964317186      4.3591293250 
  H         7.1104984884      1.5924821487      4.7486628782 
  H         8.8192995927      1.6167090784      5.1758671180 
  H         8.2620432924      2.2901463283      3.6362675836 
  C         7.3092398681      -.0832561584      2.5668804674 
  O         6.7443709284       .8417025879      2.0334613309 
  N         7.1242299885     -1.3636180336      2.2051122231 
  H         7.6907979662     -2.0584573690      2.6454753130 
  C         6.3573813715     -1.7415262886      1.0245137194 
  H         6.4474192090      -.9342820248       .3070693542 
  C         6.9132968899     -3.0291300280       .4341717618 
  H         6.3601273620     -3.3057482063      -.4540562309 
  H         7.9563872771     -2.8915144787       .1711589451 
  H         6.8291907530     -3.8456817573      1.1404834460 
  C         4.8683018655     -1.8905827405      1.3780805828 
  O         4.3339030685     -2.9745240640      1.3906309008 
  N         4.2441260548      -.7367431895      1.6598166567 
  H         4.8137785596       .0824335460      1.6832546079 
  C         2.8296998520      -.5603476052      1.9824243839 
  H         2.6833897142       .5090272235      2.0299557170 
  C         1.8899700445     -1.1267445308       .9137951869 
  H          .8646779505      -.8886265332      1.1767312663 
  H         2.1122939976      -.6723981257      -.0458198850 
  H         1.9884755758     -2.1986546904       .8191586436 
  C         2.4301512942     -1.0381688242      3.3848497334 
  O         1.8582674381      -.2825888633      4.1284398117 
  N         2.7032119982     -2.3118465898      3.7067809564 
  H         3.1552605331     -2.8930162402      3.0360531729 
  C         2.3183590036     -2.8496636718      4.9926900196 
  H         1.2424029601     -2.8270160144      5.1229868213 
  H         2.6585913382     -3.8754244452      5.0519021810 
  H         2.7658614405     -2.2830380306      5.8006652765 
