42
HF/6-31G**  Standard Conv   Energy: -984.60928547502
  C        -5.0540708637     -1.9623273093      2.0439869124 
  H        -5.5849046721     -1.3084409541      2.7292812545 
  H        -5.7545342488     -2.3381806741      1.3115639627 
  H        -4.6214265704     -2.7788775154      2.6066749658 
  C        -3.9939639457     -1.1562407877      1.3337093773 
  O        -4.1935364714      -.6358016007       .2627249171 
  N        -2.8233036384     -1.0174907781      2.0006302090 
  H        -2.6114793527     -1.6976154426      2.6998021613 
  C        -1.7095110085      -.2599219856      1.4505876798 
  H        -2.1356732008       .4787073681       .7857558730 
  C         -.9218173594       .4213931611      2.5595125322 
  H         -.0955291114       .9871168160      2.1459938392 
  H        -1.5732468410      1.0947647525      3.1045418289 
  H         -.5093024945      -.3076405530      3.2462213227 
  C         -.8260466928     -1.2099542883       .6346211136 
  O          .2567189427     -1.5662999409      1.0344862406 
  N        -1.3851504895     -1.6454391158      -.5120836796 
  H        -2.3209236427     -1.3432419152      -.6871915516 
  C         -.9065539326     -2.7638676340     -1.3220204751 
  H        -1.5605703731     -2.7963767599     -2.1816355309 
  C          .5325728241     -2.6097035035     -1.8147296144 
  H          .7739208250     -3.4350642093     -2.4772188751 
  H          .6236871321     -1.6850344787     -2.3736318399 
  H         1.2432029090     -2.5903009049     -1.0027101807 
  C        -1.1697472517     -4.0954038099      -.6083555599 
  O        -1.9726764052     -4.8792993693     -1.0476765204 
  N         -.4773843178     -4.3319599357       .5271309200 
  H          .0297533531     -3.5738892617       .9329188666 
  C         -.8593333893     -5.4320403025      1.3819191462 
  H         -.9422816401     -6.3134624327       .7663196715 
  C          .2057535847     -5.6530253867      2.4553418076 
  H         -.0621868240     -6.4894739774      3.0925080529 
  H         1.1606795486     -5.8660684151      1.9889452745 
  H          .3044569683     -4.7707992323      3.0771626923 
  C        -2.1961946827     -5.1262791411      2.0687537031 
  O        -2.3530278899     -4.0754839349      2.6475519967 
  N        -3.1492297190     -6.0743174086      2.0638624555 
  H        -3.9798226292     -5.8010157886      2.5398150361 
  C        -3.2131620268     -7.2589407740      1.2229163539 
  H        -4.1939625028     -7.6976264627      1.3468596709 
  H        -3.0744961309     -7.0090201302       .1794166593 
  H        -2.4802019326     -8.0012322165      1.5196401218 
