42
HF/6-31G**  Standard Conv   Energy: -984.61437837832
  C         5.4073313553      5.6167127403      6.0172330839 
  H         4.6797671962      6.3913226994      6.2149085734 
  H         6.3149457307      6.0576628620      5.6221496553 
  H         4.9946860084      4.9460582582      5.2703523035 
  C         5.6401143093      4.8339225485      7.2876524549 
  O         4.7534418523      4.6307482799      8.0790167337 
  N         6.8885149655      4.3492480553      7.4673260733 
  H         7.6021999243      4.5861036292      6.8172853584 
  C         7.2426861240      3.4785139941      8.5795748826 
  H         6.3568306972      2.9071438544      8.8258074832 
  C         8.3733029646      2.5429715740      8.1779106008 
  H         8.6229763994      1.8808972705      8.9973747341 
  H         8.0702735085      1.9448416386      7.3256526215 
  H         9.2679827692      3.1009350730      7.9283009702 
  C         7.6246388434      4.3217823850      9.8027729473 
  O         8.7726812982      4.4500493257     10.1536965005 
  N         6.5919204199      4.9021560255     10.4364475149 
  H         5.6805857349      4.7952924955     10.0418341227 
  C         6.7758236939      5.8749137029     11.5050748741 
  H         7.7179917637      6.3795974128     11.3250854579 
  C         5.6346590057      6.8815575792     11.4968563681 
  H         5.7783265809      7.6195409844     12.2756802548 
  H         5.5967245304      7.3861291536     10.5376400011 
  H         4.6864638560      6.3914891587     11.6797606328 
  C         6.8796716834      5.1641823338     12.8614663936 
  O         6.0001596343      5.2369003203     13.6861031241 
  N         8.0139622100      4.4724711064     13.0545792129 
  H         8.6822155811      4.4471818459     12.3131725719 
  C         8.2353259744      3.6301683015     14.2238454365 
  H         7.2667761226      3.2641021276     14.5423870427 
  C         9.1420301197      2.4637088375     13.8601579996 
  H         9.2924551706      1.8226535130     14.7196557207 
  H         8.6932035066      1.8818904706     13.0619977097 
  H        10.1149225311      2.8174816639     13.5421510597 
  C         8.8330664210      4.4620592663     15.3685243672 
  O         9.9870878668      4.3639386667     15.6918380775 
  N         7.9641470982      5.2929929019     15.9733675117 
  H         7.0591481894      5.3983253098     15.5696298184 
  C         8.4022045220      6.2182518919     16.9945987374 
  H         8.9988793458      7.0268072201     16.5824698134 
  H         7.5304227574      6.6384989244     17.4796983475 
  H         9.0003877684      5.6998021906     17.7311818259 
