42
HF/6-31G**  Standard Conv   Energy: -984.61171518462
  C         -.5167745847       .2284633028      -.2939299434 
  H          .0162791487       .9994878298       .2467019970 
  H          .0309640090      -.7043134122      -.2547808577 
  H         -.5994691021       .5432600302     -1.3293257278 
  C        -1.9110415570       .1097300213       .2798966994 
  O        -2.5523141481      1.0754292055       .5983715617 
  N        -2.3789512566     -1.1559205979       .4026580656 
  H        -1.8280265057     -1.9132588427       .0527209889 
  C        -3.7485857093     -1.4329910837       .7958908603 
  H        -4.0710183750      -.5989791715      1.4068699758 
  C        -4.6865353705     -1.5817916034      -.3955990354 
  H        -5.6976498031     -1.7890539315      -.0662513529 
  H        -4.6837895674      -.6591775462      -.9641577582 
  H        -4.3686266219     -2.3952393903     -1.0367021279 
  C        -3.7413911533     -2.6916835908      1.6678326002 
  O        -4.3551713705     -3.6833313858      1.3617179798 
  N        -2.9845196581     -2.5985425923      2.7848241971 
  H        -2.4052511139     -1.7911337752      2.8419494626 
  C        -2.5833536389     -3.7124585634      3.6433159370 
  H        -2.0620343558     -3.2617666536      4.4760593179 
  C        -3.7477274891     -4.5343927313      4.1943865763 
  H        -3.3624649905     -5.2645518290      4.8990366433 
  H        -4.4326148698     -3.8793543820      4.7208013025 
  H        -4.2947171774     -5.0472723066      3.4187240851 
  C        -1.5092028965     -4.5449753349      2.9373366589 
  O         -.3720306841     -4.5497686295      3.3323152133 
  N        -1.8881463349     -5.2289837356      1.8339019345 
  H        -2.7946171044     -5.0464120553      1.4587699562 
  C         -.8736082696     -5.7372611408       .9421823305 
  H         -.2145172661     -6.3829862994      1.5086902604 
  C        -1.5254347810     -6.5301791367      -.1896726922 
  H         -.7705319666     -6.9306621714      -.8572285765 
  H        -2.0991474515     -7.3544789840       .2181532473 
  H        -2.1868055721     -5.8925160205      -.7655172540 
  C         -.0640718747     -4.5801631779       .3452107051 
  O         -.6121785134     -3.6024991019      -.1070433400 
  N         1.2643222959     -4.7601315522       .2909979102 
  H         1.6560042313     -5.4562121588       .8822101260 
  C         2.1461743616     -3.7260146669      -.2119453259 
  H         2.2255838548     -2.8932939447       .4795614340 
  H         3.1290760604     -4.1511910133      -.3669595639 
  H         1.7698100882     -3.3581998506     -1.1554553133 
