42
HF/6-31G**  Standard Conv   Energy: -984.60569216919
  C         9.0898281524      1.7535266101      1.1335529785 
  H        10.0309865806      1.2828331286      1.3783496493 
  H         8.5501833197      1.1075087932       .4477090314 
  H         9.2690796007      2.7026341860       .6419482524 
  C         8.2780834664      1.9058478977      2.3975824644 
  O         8.4190546855      1.1784339432      3.3424143150 
  N         7.3770434637      2.9261832753      2.4077241777 
  H         7.2067098704      3.3922739146      1.5456427960 
  C         6.3308462013      3.0249610825      3.4211052348 
  H         5.8082919529      3.9537086227      3.2077720162 
  C         5.3268785942      1.8756217524      3.3691728008 
  H         4.5352096089      2.0427669991      4.0856840480 
  H         4.8961654126      1.8169287866      2.3745263588 
  H         5.8063556637       .9353486580      3.6036510205 
  C         6.8945239347      3.2159457438      4.8351254854 
  O         6.2829502635      2.8004638978      5.7868835881 
  N         8.0248021752      3.9360785083      4.9278438197 
  H         8.4964827462      4.1352130286      4.0774771002 
  C         8.7105442761      4.3311683062      6.1562700825 
  H         9.4918219198      5.0069919469      5.8391052847 
  C         7.8116076179      5.0770957317      7.1469925929 
  H         8.4155881901      5.4229071938      7.9787520763 
  H         7.3694725188      5.9404324744      6.6614663027 
  H         7.0175917865      4.4495447011      7.5242163884 
  C         9.4803511622      3.2019535393      6.8550993918 
  O        10.6246007812      3.3935033496      7.1710420977 
  N         8.8085905739      2.0600983063      7.1096212289 
  H         7.8268190280      2.0490394507      6.9275639652 
  C         9.3765437699       .9951520214      7.9171403595 
  H        10.4251364967      1.2307814280      8.0387967588 
  C         8.7178555991       .9254078974      9.2949801229 
  H         9.1565533650       .1282804862      9.8778837136 
  H         8.8547048071      1.8684628831      9.8128992921 
  H         7.6519719532       .7345104181      9.2051959331 
  C         9.3382944680      -.3748817033      7.2347788404 
  O         9.5612087441     -1.3669526703      7.8826893894 
  N         9.0868845718      -.4107106069      5.9194480897 
  H         8.9454579317       .4275355270      5.4062274960 
  C         9.1059808078     -1.6647666468      5.2001111251 
  H        10.0825916405     -2.1332096680      5.2529259623 
  H         8.3809799567     -2.3565064245      5.6121570608 
  H         8.8616873405     -1.4628633462      4.1667167860 
