42
HF/6-31G**  Standard Conv   Energy: -984.60567669214
  C         8.4731334595     -1.3855195062      5.2961575865 
  H         9.0748635087     -2.0035155385      4.6451172894 
  H         9.1268280351      -.6756881129      5.7938933359 
  H         7.9953672820     -2.0012515443      6.0492024900 
  C         7.4785548987      -.6195073693      4.4571793279 
  O         7.7104306365      -.2961059573      3.3238929706 
  N         6.2949939777      -.3197449273      5.0578737709 
  H         6.2240783367      -.4829137996      6.0364095189 
  C         5.3584502801       .6416310389      4.4841390233 
  H         4.4900757137       .6254423047      5.1374987505 
  C         5.9073191941      2.0654453061      4.4341461992 
  H         5.1460132231      2.7436479991      4.0752892539 
  H         6.2103425646      2.3709780944      5.4306565102 
  H         6.7590198159      2.1258819913      3.7707850382 
  C         4.8219931886       .1958963882      3.1175617024 
  O         4.5151896490      1.0198489253      2.2932394911 
  N         4.6377809973     -1.1256913254      2.9607855704 
  H         5.0242315479     -1.7148498079      3.6599731640 
  C         4.0615448598     -1.7956671054      1.7964202404 
  H         3.9558967035     -2.8302464922      2.0897724459 
  C         2.6775659020     -1.2668484673      1.4097896441 
  H         2.2796411781     -1.8753907043       .6049167280 
  H         2.0070286969     -1.3411799807      2.2592125223 
  H         2.7133771769      -.2365774346      1.0878505439 
  C         4.9918990902     -1.8658684535       .5775521420 
  O         5.2021363199     -2.9332352059       .0665940125 
  N         5.4925578984      -.7034979772       .1119033185 
  H         5.2103311777       .1437694937       .5569861037 
  C         6.2469226384      -.6358752266     -1.1258971603 
  H         5.9922011415     -1.5074527915     -1.7116214310 
  C         5.8745348273       .6277280900     -1.9031623762 
  H         6.4374710750       .6673350489     -2.8253272995 
  H         4.8140772920       .6270777781     -2.1308490107 
  H         6.1002072750      1.5203039799     -1.3252494548 
  C         7.7676051422      -.6994014098      -.9647798192 
  O         8.4515746433      -.7855237608     -1.9542642415 
  N         8.2783816225      -.6245989130       .2702183193 
  H         7.6833525036      -.5681568977      1.0630193152 
  C         9.7075483918      -.6720512101       .4823116975 
  H        10.1223083691     -1.6163326438       .1472214336 
  H        10.2049452618       .1230401001      -.0603482247 
  H         9.8940275935      -.5537186391      1.5404974003 
