42
HF/6-31G**  Standard Conv   Energy: -984.60874877662
  C         8.0067453758       .3794890141      1.6309083682 
  H         8.1195971436      -.2194813562       .7388237701 
  H         7.6929656441      1.3826130758      1.3659162550 
  H         8.9707700404       .4403244843      2.1266690388 
  C         7.0290544590      -.3025438255      2.5568641433 
  O         6.8690538733     -1.4944503609      2.5584596618 
  N         6.3292255090       .5058122772      3.3970869757 
  H         6.5957827169      1.4630163234      3.4488974723 
  C         5.6094353095      -.0489219293      4.5345337455 
  H         6.2446331085      -.7549208095      5.0548920060 
  C         5.2027654493      1.0726230903      5.4895041602 
  H         4.6656134354       .6532545450      6.3293367058 
  H         6.0800505356      1.5899700620      5.8650184213 
  H         4.5594530011      1.7934181819      4.9930815630 
  C         4.3720235229      -.8616992744      4.1576317609 
  O         3.9125077203     -1.6260722144      4.9598242372 
  N         3.8253562334      -.6434835075      2.9429106714 
  H         4.2647780568       .0077740691      2.3350598511 
  C         2.6667229195     -1.3754627310      2.4769223078 
  H         2.0778239415     -1.6388729405      3.3443725879 
  C         1.8320284859      -.5059660875      1.5367612161 
  H          .9627976528     -1.0550214737      1.2044238722 
  H         1.5112713978       .3934533318      2.0503637045 
  H         2.4065660964      -.2166196640       .6598988535 
  C         2.9833772346     -2.7117646760      1.7944998800 
  O         2.0499091436     -3.3927278224      1.4290403616 
  N         4.2678500732     -3.0325343457      1.6149177600 
  H         4.9606190808     -2.4214358825      1.9863985976 
  C         4.7849504840     -4.3029537852      1.1040060086 
  H         5.8540248634     -4.2405006583      1.2432780751 
  C         4.2664646948     -5.5238692829      1.8701584159 
  H         4.7569656963     -6.4156102828      1.4940898738 
  H         4.5017923911     -5.4191668172      2.9236095460 
  H         3.1969783416     -5.6391113207      1.7653690134 
  C         4.6283924151     -4.4895813898      -.4103589881 
  O         5.5878127590     -4.7961536920     -1.0717079344 
  N         3.4005728326     -4.3430026773      -.9314162095 
  H         2.6399568961     -4.1443084541      -.3189466019 
  C         3.1612762686     -4.5742848212     -2.3378889650 
  H         3.3459016395     -5.6083108006     -2.6087717348 
  H         2.1285082836     -4.3334897454     -2.5554780598 
  H         3.8044039318     -3.9495395822     -2.9456679290 
