42
HF/6-31G**  Standard Conv   Energy: -984.61313794030
  C         6.0791896060       .6477923030      3.8852223288 
  H         5.0446007540       .9523789474      3.9504131148 
  H         6.6186387580      1.3108749698      3.2185146400 
  H         6.1154681048      -.3566785870      3.4743910928 
  C         6.6707938851       .6249288330      5.2737517283 
  O         6.0029471556       .4405618701      6.2558036635 
  N         8.0138897283       .8278467096      5.3585380525 
  H         8.5367067258       .8370456567      4.5119836311 
  C         8.7337472704       .5146667943      6.5835606977 
  H         8.4372376632      -.4642397067      6.9396775993 
  C        10.2396990902       .5298540812      6.3236856688 
  H        10.7666461573       .2998042274      7.2398536948 
  H        10.5041291494      -.2141697258      5.5790175269 
  H        10.5651896965      1.5048348066      5.9732271418 
  C         8.4134239633      1.4529882874      7.7436202381 
  O         8.6437134763      1.0901209234      8.8692648580 
  N         7.9156434722      2.6663045623      7.4544170824 
  H         7.7283357901      2.8894984727      6.5051725455 
  C         7.5919000196      3.6281329791      8.4916153114 
  H         8.4225006215      3.6787495232      9.1827577127 
  C         7.3608452765      5.0044323051      7.8714672516 
  H         7.1284454543      5.7159486322      8.6512785363 
  H         8.2492047452      5.3364768514      7.3443689440 
  H         6.5291517164      4.9816834850      7.1717218110 
  C         6.3908500909      3.2493819795      9.3645653283 
  O         6.2038431239      3.8785355557     10.3719685356 
  N         5.5971557664      2.2470700152      8.9455148580 
  H         5.8058999593      1.7709754021      8.0955176693 
  C         4.4747279894      1.7684720047      9.7291239704 
  H         4.2064174175      2.5587780320     10.4162551085 
  C         3.2859919251      1.4527217420      8.8221499284 
  H         2.4633864667      1.0789203505      9.4150429647 
  H         2.9734379367      2.3501969600      8.2990003228 
  H         3.5508760233       .7010976374      8.0842557938 
  C         4.7969263605       .5585725605     10.6138734710 
  O         3.9130761682       .0551144582     11.2611565992 
  N         6.0597452313       .1100086516     10.6355803027 
  H         6.7714429122       .5752215259     10.1214614287 
  C         6.4354496314      -.9898549654     11.4958734324 
  H         6.2848929520      -.7424066351     12.5406939720 
  H         5.8480408078     -1.8717561646     11.2710062833 
  H         7.4823823989     -1.2083361274     11.3309308038 
