mFile = /Applications/qchem/bin/mpi/machines
                  Welcome to Q-Chem
     A Quantum Leap Into The Future Of Chemistry

 Y. Shao, L. Fusti-Molnar, Y. Jung, J. Kussmann, C. Ochsenfeld,
 S. T. Brown, A. T. B. Gilbert, L. V. Slipchenko,S. V. Levchenko,
 D. P. O'Neill, R. A. DiStasio Jr., R. C. Lochan, T. Wang,
 G. J. O. Beran, N. A. Besley, J. M. Herbert, C. Y. Lin,
 T. Van Voorhis, S. H. Chien, A. Sodt, R. P. Steele, 
 V. A. Rassolov, P. E. Maslen, P. P. Korambath, R. D. Adamson,
 B. Austin, J. Baker, E. F. C. Byrd, H. Dachsel, R. J. Doerksen,
 A. Dreuw, B. D. Dunietz, A. D. Dutoi, T. R. Furlani,
 S. R. Gwaltney, A. Heyden, S. Hirata, C.-P. Hsu, G. Kedziora,
 R. Z. Khaliullin, P. Klunzinger, A. M. Lee, M. S. Lee, W. Liang,
 I. Lotan, N. Nair, B. Peters, E. I. Proynov, P. A. Pieniazek, 
 Y. M. Rhee, J. Ritchie, E. Rosta, C. D. Sherrill, 
 A. C. Simmonett, J. E. Subotnik, H. L. Woodcock III,
 W. Zhang, A. T. Bell, A. K. Chakraborty, D. M. Chipman,
 F. J. Keil, A. Warshel, W. J. Hehre, H. F. Schaefer III,
 J. Kong, A. I. Krylov, P. M. W. Gill, M. Head-Gordon,

 Additional authors for Version 3.1: 
 Z. Gan, Y. Zhao, N. E. Schultz, D. Truhlar, E. Epifanovsky and M. Oana.

 Additional authors for Version 3.2: 
 R. Baer, B. R. Brooks, D. Casanova, J.-D. Chai, C.-L. Cheng, 
 C. Cramer, D. Crittenden, A. Ghysels, G. Hawkins, E. G. Hohenstein, 
 C. Kelley, W. Kurlancheek, D. Liotard, E. Livshits, P. Manohar, 
 A. Marenich, D. Neuhauser, R. Olson, M. A. Rohrdanz, K. S. Thanthiriwatte, 
 A. J. W. Thom, V. Vanovschi, C. F. Williams, Q. Wu and Z.-Q. You. 

 Additional authors for Version 4.0: 
 A. Aspuru-Guzik, C. Chang, R. G. Edgar, E. Sundstrom, J. Parkhill, K. Lawler,
 M. Gordon, M. Schmidt, N. Shenvi, D. Lambrecht, M. Goldey, R. Olivares-Amaya,
 Y. Bernard, L. Vogt, M. Watson, J. Liu, S. Yeganeh, B. Kaduk, O. Vydrov, X. Xu, 
 I. Kaliman, K. Khistyaev, N. Russ, I.Y. Zhang, W.A. Goddard III, F. Liu, R. King ,
 A. Landau, M. Wormit, A. Dreuw, M. Diedenhofen, A. Klamt, A.W. Lange, D. Ghosh,
 D. Kosenkov, T. Kus, A. Landau, D. Zuev, J. Deng, S.P. Mao, Y.C. Su, D. Small,
 L. D. Jacobson
 
 Q-Chem, Version 4.0.1, Q-Chem, Inc., Pittsburgh, PA (2007).


 MAC (Intel) OSX Version 4.0.1.0 

 Q-chem begins on Sun Mar  9 21:31:27 2014  

Andreass-MacBook-Air.local
Host: 0
 Using version located at /Users/hauser/Scripts//qchem


theFileMan(): MAXOPENFILES=206 MAX_SUB_FILE_NUM=16
Maximum size of a physical file is 2.0 GB, maximum size of a tmp-file is 32.0 GB


Total Memory Limit in MB = 16000
Mega-Array Size in MB = 4000
Finally everything over in PARseQInput

--------------------------------------------------------------
User input:
--------------------------------------------------------------
$rem
   JOBTYPE  freq
   EXCHANGE hf
   BASIS    GEN
   SCF_ALGORITHM  RCA_DIIS
   MAX_RCA_CYCLES 10
   THRESH_RCA_SWITCH 7
   SCF_GUESS      SAD
   SCF_CONVERGENCE 9
   THRESH 14
   INCFOCK 0
   INCDFT  0
   MAX_SCF_CYCLES 500
   SYMMETRY       FALSE
   SYM_IGNORE     TRUE
   MEM_TOTAL 16000
   MEM_STATIC 4000
$end


$comment
trans butadiene frequencies
$end

$basis
   H
   cc-pVDZ 
   **** 
   C
   cc-pVDZ 
   **** 
$end

$molecule
   0 1
C         -2.16422        0.87892        0.58033
C         -1.27889        0.00580        0.11870
C          0.17422        0.14451        0.27905
C          1.05956       -0.72841       -0.18290
H         -3.22727        0.73455        0.43779
H         -1.85723        1.76944        1.11715
H         -1.62356       -0.87454       -0.41442
H          0.51888        1.02478        0.81230
H          0.75259       -1.61869       -0.72013
H          2.12262       -0.58390       -0.04063
$end

--------------------------------------------------------------
 ----------------------------------------------------
       Standard Nuclear Orientation (Angstroms)
    I     Atom         X            Y            Z
 ----------------------------------------------------
    1      C      -2.164220     0.878920     0.580330
    2      C      -1.278890     0.005800     0.118700
    3      C       0.174220     0.144510     0.279050
    4      C       1.059560    -0.728410    -0.182900
    5      H      -3.227270     0.734550     0.437790
    6      H      -1.857230     1.769440     1.117150
    7      H      -1.623560    -0.874540    -0.414420
    8      H       0.518880     1.024780     0.812300
    9      H       0.752590    -1.618690    -0.720130
   10      H       2.122620    -0.583900    -0.040630
 ----------------------------------------------------
 Nuclear Repulsion Energy =   103.9908693633 hartrees
 There are       15 alpha and       15 beta electrons

 Q-Chem warning in module /Applications/qchem/forms1/BasisType.C, line 1125:

 Setting pure/cartesian flag to 2111 for general basis


 Requested basis set is non-standard
 There are 42 shells and 86 basis functions

Total QAlloc Memory Limit  16000 MB
Mega-Array Size      3911 MB
MEM_STATIC part      4000 MB

finished with qalloc call

                       Distance Matrix (Angstroms)
             C (  1)   C (  2)   C (  3)   C (  4)   H (  5)   H (  6)
   C (  2)  1.326367
   C (  3)  2.469500  1.468496
   C (  4)  3.682226  2.469489  1.326354
   H (  5)  1.082236  2.104538  3.455934  4.571916
   H (  6)  1.084179  2.107559  2.733057  4.054263  1.846493
   H (  7)  2.087214  1.085363  2.179765  2.697052  2.426380  3.064464
   H (  8)  2.697056  2.179766  1.085367  2.087207  3.775994  2.508655
   H (  9)  4.054261  2.733041  2.107545  1.084179  4.766320  4.654695
   H ( 10)  4.571918  3.455923  2.104528  1.082229  5.530689  4.766327
             H (  7)   H (  8)   H (  9)
   H (  8)  3.114853
   H (  9)  2.508646  3.064457
   H ( 10)  3.775984  2.426381  1.846481

 Job number = 2, Threshold = 1.00E-14
Integral type ranges set in mkLRange.C for JobNum: 2  <1-21|1-21>
Symmetry turned off temporarily
 Using the largest function pair in Schwarz integrals
Total number of integrals generated =           46271
Symmetry turned back on
 A cutoff of  1.0D-14 yielded    897 shell pairs
 There are      3801 function pairs (      4175 Cartesian)
 Job number = 11, Threshold = 1.00E-14
Integral type ranges set in mkLRange.C for JobNum: 11  <1-21|22-22>
Total number of integrals generated =           41750
 Smallest overlap matrix eigenvalue = 2.27E-03
 Multipole matrices computed through 2nd order
 Guess MOs from core Hamiltonian diagonalization
scfman initvdwdat 
 A restricted Hartree-Fock SCF calculation will be
 performed using Relaxed Constraint Minimization + Pulay DIIS
 SCF converges when DIIS error is below 1.0E-09
Finding J and K together
 Job number = 22, Threshold = 1.00E-14
Integral type ranges set in mkLRange.C for JobNum: 22  <1-21|1-21>
Storing 20.86% of integrals
Total number of integrals generated =         8658713
Fock build time:  0.57 s (CPU) 0.57 s (wall)
DIIS Errors:  Max 1.12E+00 RMS 1.04E-01

Current DIIS subspace size = 1
REM_GRID_RESTART_DIIS = 0

 ---------------------------------------
  Cycle       Energy         DIIS Error
 ---------------------------------------
    1    -124.1277410787      1.04E-01  00000
Finding J and K together
 Job number = 22, Threshold = 1.00E-14
Integral type ranges set in mkLRange.C for JobNum: 22  <1-21|1-21>
Storing 20.86% of integrals
Reusing in-core integrals buffer for job 22
Fock build time:  0.22 s (CPU) 0.22 s (wall)
DIIS Errors:  Max 3.21E-01 RMS 3.91E-02

Current DIIS subspace size = 2
REM_GRID_RESTART_DIIS = 0

    2    -140.2591502219      3.91E-02  00000
Finding J and K together
 Job number = 22, Threshold = 1.00E-14
Integral type ranges set in mkLRange.C for JobNum: 22  <1-21|1-21>
Storing 20.86% of integrals
Reusing in-core integrals buffer for job 22
Fock build time:  0.23 s (CPU) 0.23 s (wall)
DIIS Errors:  Max 1.86E-01 RMS 1.78E-02

Current DIIS subspace size = 3
REM_GRID_RESTART_DIIS = 0

    3    -154.4773779367      1.78E-02  00000
Finding J and K together
 Job number = 22, Threshold = 1.00E-14
Integral type ranges set in mkLRange.C for JobNum: 22  <1-21|1-21>
Storing 20.86% of integrals
Reusing in-core integrals buffer for job 22
Fock build time:  0.22 s (CPU) 0.23 s (wall)
DIIS Errors:  Max 7.68E-02 RMS 8.27E-03

Current DIIS subspace size = 4
REM_GRID_RESTART_DIIS = 0

    4    -154.8616743229      8.27E-03  00000
Finding J and K together
 Job number = 22, Threshold = 1.00E-14
Integral type ranges set in mkLRange.C for JobNum: 22  <1-21|1-21>
Storing 20.86% of integrals
Reusing in-core integrals buffer for job 22
Fock build time:  0.22 s (CPU) 0.22 s (wall)
DIIS Errors:  Max 5.33E-02 RMS 4.50E-03

Current DIIS subspace size = 5
REM_GRID_RESTART_DIIS = 0

    5    -154.9123566586      4.50E-03  00000
Finding J and K together
 Job number = 22, Threshold = 1.00E-14
Integral type ranges set in mkLRange.C for JobNum: 22  <1-21|1-21>
Storing 20.86% of integrals
Reusing in-core integrals buffer for job 22
Fock build time:  0.27 s (CPU) 0.27 s (wall)
DIIS Errors:  Max 2.20E-02 RMS 2.18E-03

Current DIIS subspace size = 6
REM_GRID_RESTART_DIIS = 0

    6    -154.9272674679      2.18E-03  00000
Finding J and K together
 Job number = 22, Threshold = 1.00E-14
Integral type ranges set in mkLRange.C for JobNum: 22  <1-21|1-21>
Storing 20.86% of integrals
Reusing in-core integrals buffer for job 22
Fock build time:  0.23 s (CPU) 0.24 s (wall)
DIIS Errors:  Max 1.63E-02 RMS 1.23E-03

Current DIIS subspace size = 7
REM_GRID_RESTART_DIIS = 0

    7    -154.9333062038      1.23E-03  00000
Finding J and K together
 Job number = 22, Threshold = 1.00E-14
Integral type ranges set in mkLRange.C for JobNum: 22  <1-21|1-21>
Storing 20.86% of integrals
Reusing in-core integrals buffer for job 22
Fock build time:  0.22 s (CPU) 0.22 s (wall)
DIIS Errors:  Max 5.82E-03 RMS 5.42E-04

Current DIIS subspace size = 8
REM_GRID_RESTART_DIIS = 0

    8    -154.9343815338      5.42E-04  00000
Finding J and K together
 Job number = 22, Threshold = 1.00E-14
Integral type ranges set in mkLRange.C for JobNum: 22  <1-21|1-21>
Storing 20.86% of integrals
Reusing in-core integrals buffer for job 22
Fock build time:  0.22 s (CPU) 0.22 s (wall)
DIIS Errors:  Max 4.34E-03 RMS 3.02E-04

Current DIIS subspace size = 9
REM_GRID_RESTART_DIIS = 0

    9    -154.9348648457      3.02E-04  00000
Finding J and K together
 Job number = 22, Threshold = 1.00E-14
Integral type ranges set in mkLRange.C for JobNum: 22  <1-21|1-21>
Storing 20.86% of integrals
Reusing in-core integrals buffer for job 22
Fock build time:  0.22 s (CPU) 0.22 s (wall)
DIIS Errors:  Max 1.54E-03 RMS 1.41E-04

Current DIIS subspace size = 10
REM_GRID_RESTART_DIIS = 0

   10    -154.9349312179      1.41E-04  00000 Done RCA. Switching to DIIS
Finding J and K together
 Job number = 22, Threshold = 1.00E-14
Integral type ranges set in mkLRange.C for JobNum: 22  <1-21|1-21>
Storing 20.86% of integrals
Reusing in-core integrals buffer for job 22
Fock build time:  0.22 s (CPU) 0.22 s (wall)
DIIS Errors:  Max 1.17E-03 RMS 7.69E-05

Current DIIS subspace size = 11
REM_GRID_RESTART_DIIS = 0

   11    -154.9349618403      7.69E-05  00000
Finding J and K together
 Job number = 22, Threshold = 1.00E-14
Integral type ranges set in mkLRange.C for JobNum: 22  <1-21|1-21>
Storing 20.86% of integrals
Reusing in-core integrals buffer for job 22
Fock build time:  0.21 s (CPU) 0.22 s (wall)
DIIS Errors:  Max 9.35E-06 RMS 7.98E-07

Current DIIS subspace size = 12
REM_GRID_RESTART_DIIS = 0

   12    -154.9349690315      7.98E-07  00000
Finding J and K together
 Job number = 22, Threshold = 1.00E-14
Integral type ranges set in mkLRange.C for JobNum: 22  <1-21|1-21>
Storing 20.86% of integrals
Reusing in-core integrals buffer for job 22
Fock build time:  0.22 s (CPU) 0.22 s (wall)
DIIS Errors:  Max 4.41E-06 RMS 3.11E-07

Current DIIS subspace size = 13
REM_GRID_RESTART_DIIS = 0

   13    -154.9349690334      3.11E-07  00000
Finding J and K together
 Job number = 22, Threshold = 1.00E-14
Integral type ranges set in mkLRange.C for JobNum: 22  <1-21|1-21>
Storing 20.86% of integrals
Reusing in-core integrals buffer for job 22
Fock build time:  0.21 s (CPU) 0.21 s (wall)
DIIS Errors:  Max 1.64E-06 RMS 1.04E-07
 Singularity in Pulay DIIS matrix

Current DIIS subspace size = 14
REM_GRID_RESTART_DIIS = 0

NextCycle: DoReset = 1
   14    -154.9349690336      1.04E-07  00000
Finding J and K together
 Job number = 22, Threshold = 1.00E-14
Integral type ranges set in mkLRange.C for JobNum: 22  <1-21|1-21>
Storing 20.86% of integrals
Reusing in-core integrals buffer for job 22
Fock build time:  0.22 s (CPU) 0.22 s (wall)
DIIS Errors:  Max 7.88E-07 RMS 5.44E-08

Current DIIS subspace size = 2
REM_GRID_RESTART_DIIS = 0

   15    -154.9349690336      5.44E-08  00000
Finding J and K together
 Job number = 22, Threshold = 1.00E-14
Integral type ranges set in mkLRange.C for JobNum: 22  <1-21|1-21>
Storing 20.86% of integrals
Reusing in-core integrals buffer for job 22
Fock build time:  0.22 s (CPU) 0.22 s (wall)
DIIS Errors:  Max 5.18E-07 RMS 3.26E-08

Current DIIS subspace size = 3
REM_GRID_RESTART_DIIS = 0

   16    -154.9349690336      3.26E-08  00000
Finding J and K together
 Job number = 22, Threshold = 1.00E-14
Integral type ranges set in mkLRange.C for JobNum: 22  <1-21|1-21>
Storing 20.86% of integrals
Reusing in-core integrals buffer for job 22
Fock build time:  0.22 s (CPU) 0.22 s (wall)
DIIS Errors:  Max 6.46E-08 RMS 4.75E-09

Current DIIS subspace size = 4
REM_GRID_RESTART_DIIS = 0

   17    -154.9349690336      4.75E-09  00000
Finding J and K together
 Job number = 22, Threshold = 1.00E-14
Integral type ranges set in mkLRange.C for JobNum: 22  <1-21|1-21>
Storing 20.86% of integrals
Reusing in-core integrals buffer for job 22
Fock build time:  0.21 s (CPU) 0.21 s (wall)
DIIS Errors:  Max 2.08E-08 RMS 1.88E-09
 Singularity in Pulay DIIS matrix

Current DIIS subspace size = 5
REM_GRID_RESTART_DIIS = 0

NextCycle: DoReset = 1
   18    -154.9349690336      1.88E-09  00000
Finding J and K together
 Job number = 22, Threshold = 1.00E-14
Integral type ranges set in mkLRange.C for JobNum: 22  <1-21|1-21>
Storing 20.86% of integrals
Reusing in-core integrals buffer for job 22
Fock build time:  0.21 s (CPU) 0.22 s (wall)
DIIS Errors:  Max 1.61E-08 RMS 8.08E-10

Current DIIS subspace size = 2
REM_GRID_RESTART_DIIS = 0

   19    -154.9349690336      8.08E-10  00000 Convergence criterion met
 ---------------------------------------
 SCF time:  CPU 4.69 s  wall 4.68 s
 SCF   energy in the final basis set = -154.9349690336
 Total energy in the final basis set = -154.9349690336
Symmetry turned off temporarily
 Analysis of SCF Wavefunction

 --------------------------------------------------------------
                    Orbital Energies (a.u.)
 --------------------------------------------------------------

 Alpha MOs
 -- Occupied --
-11.241 -11.241 -11.233 -11.233  -1.092  -1.003  -0.823  -0.752
 -0.642  -0.634  -0.557  -0.541  -0.488  -0.443  -0.325
 -- Virtual --
  0.124   0.203   0.207   0.216   0.243   0.269   0.278   0.294
  0.429   0.443   0.550   0.577   0.598   0.672   0.703   0.710
  0.731   0.770   0.796   0.810   0.831   0.869   0.886   0.930
  0.959   0.989   1.012   1.100   1.120   1.177   1.189   1.222
  1.245   1.245   1.291   1.323   1.359   1.450   1.599   1.703
  1.711   1.738   1.751   1.751   1.844   1.884   1.893   1.916
  1.924   1.941   2.005   2.043   2.086   2.158   2.181   2.235
  2.253   2.425   2.436   2.454   2.491   2.557   2.577   2.614
  2.685   2.833   2.834   3.053   3.088   3.383   3.545
 --------------------------------------------------------------

          Ground-State Mulliken Net Atomic Charges

     Atom                 Charge (a.u.)
  ----------------------------------------
      1 C                    -0.018277
      2 C                    -0.089135
      3 C                    -0.089134
      4 C                    -0.018269
      5 H                     0.047920
      6 H                     0.038880
      7 H                     0.020610
      8 H                     0.020610
      9 H                     0.038878
     10 H                     0.047917
  ----------------------------------------
  Sum of atomic charges =     0.000000

 -----------------------------------------------------------------
                    Cartesian Multipole Moments
 -----------------------------------------------------------------
    Charge (ESU x 10^10)
                 0.0000
    Dipole Moment (Debye)
         X       0.0000      Y       0.0002      Z      -0.0004
       Tot       0.0004
    Quadrupole Moments (Debye-Ang)
        XX     -23.2439     XY      -0.1474     YY     -24.4108
        XZ       0.2271     YZ       2.6618     ZZ     -27.4124
    Octapole Moments (Debye-Ang^2)
       XXX      38.5155    XXY      -1.5843    XYY      13.4590
       YYY      -5.5062    XXZ      -4.8736    XYZ      -1.4813
       YYZ      -4.4523    XZZ      15.2326    YZZ      -1.0046
       ZZZ     -16.3478
    Hexadecapole Moments (Debye-Ang^3)
      XXXX    -323.2614   XXXY      50.8745   XXYY     -76.7948
      XYYY      55.8004   YYYY    -102.2710   XXXZ      31.2040
      XXYZ      -1.8962   XYYZ       7.6571   YYYZ     -14.3523
      XXZZ     -74.8382   XYZZ      18.6142   YYZZ     -25.0002
      XZZZ      34.1870   YZZZ     -19.2449   ZZZZ     -59.3634
 -----------------------------------------------------------------
 Calculating MO derivatives via CPSCF
use symmetric Px in CPSCF
Wx will be set to be (0.5PFCCt+0.5CCtFP)x rather than (PFP)x
 Job number = 111, Threshold = 1.00E-14
Integral type ranges set in mkLRange.C for JobNum: 11  <1-21|22-22>
Total number of integrals generated =           41750
 Job number = 31, Threshold = 1.00E-14
Integral type ranges set in mkLRange.C for JobNum: 31  <1-21|1-21>
Storing 20.86% of integrals
Total number of integrals generated =         8658713
 Job number = 130, Threshold = 1.00E-14
Integral type ranges set in mkLRange.C for JobNum: 30  <1-21|1-21>
 using symmetry in setfoz
 Job number = 31, Threshold = 1.00E-14
Integral type ranges set in mkLRange.C for JobNum: 31  <1-21|1-21>
Storing 20.86% of integrals
 using symmetry in makeab
   1         3          30      0.190976    0.036705
 using symmetry in setfoz
 Job number = 31, Threshold = 1.00E-14
Integral type ranges set in mkLRange.C for JobNum: 31  <1-21|1-21>
Storing 20.86% of integrals
 using symmetry in makeab
   2         3          30      0.040104    0.010676
 using symmetry in setfoz
 Job number = 31, Threshold = 1.00E-14
Integral type ranges set in mkLRange.C for JobNum: 31  <1-21|1-21>
Storing 20.86% of integrals
 using symmetry in makeab
   3         3          30      0.005918    0.001677
 using symmetry in setfoz
 Job number = 31, Threshold = 1.00E-14
Integral type ranges set in mkLRange.C for JobNum: 31  <1-21|1-21>
Storing 20.86% of integrals
 using symmetry in makeab
   4         3          30      0.000710    0.000193
 using symmetry in setfoz
 Job number = 31, Threshold = 1.00E-14
Integral type ranges set in mkLRange.C for JobNum: 31  <1-21|1-21>
Storing 20.86% of integrals
 using symmetry in makeab
   5        18          15      0.000061    0.000020
 using symmetry in setfoz
 Job number = 31, Threshold = 1.00E-14
Integral type ranges set in mkLRange.C for JobNum: 31  <1-21|1-21>
Storing 20.86% of integrals
 using symmetry in makeab
   6        31           2      0.000003    0.000002
 using symmetry in setfoz
 Job number = 30, Threshold = 1.00E-14
Integral type ranges set in mkLRange.C for JobNum: 30  <1-21|1-21>
Storing 20.86% of integrals
 using symmetry in makeab
   7        33           0      0.000000    0.000000    Roots Converged
 Job number = 31, Threshold = 1.00E-14
Integral type ranges set in mkLRange.C for JobNum: 31  <1-21|1-21>
Storing 20.86% of integrals
 CPSCF time:  CPU 13.97 s  wall 13.80 s
 Calculating analytic Hessian of the SCF energy
 Polarizability Matrix (a.u.)
            1           2           3
    1 -65.3115413  19.1992110   8.6821224
    2  19.1992110 -45.8588003 -14.7369486
    3   8.6821224 -14.7369486 -26.9811783
 Job number = 211, Threshold = 1.00E-14
Integral type ranges set in mkLRange.C for JobNum: 11  <1-21|22-22>
Total number of integrals generated =           41750
Finding J and K together
 Job number = 222, Threshold = 1.00E-14
Integral type ranges set in mkLRange.C for JobNum: 22  <1-21|1-21>
Total number of integrals generated =         8658713

 Direct stationary perturbation theory relativistic correction:

 rels  =       0.038851295354
 relv  =      -0.157335700262
 rel2e =       0.054566040410
 E_rel =      -0.063918364498

 Hessian of the SCF Energy
            1           2           3           4           5           6
    1   0.8406580  -0.1285823  -0.0363410  -0.3556951   0.2272283   0.1167190
    2  -0.1285823   0.6758717   0.3107279   0.2219272  -0.3427028  -0.1513860
    3  -0.0363410   0.3107279   0.3113293   0.1136141  -0.1510886  -0.1448212
    4  -0.3556951   0.2219272   0.1136141   0.7834709  -0.1377127  -0.0462842
    5   0.2272283  -0.3427028  -0.1510886  -0.1377127   0.7118503   0.3158723
    6   0.1167190  -0.1513860  -0.1448212  -0.0462842   0.3158723   0.3402274
    7  -0.0348968   0.0087680   0.0027968  -0.2844133  -0.0326777  -0.0304130
    8   0.0336570   0.0075245   0.0017192  -0.0326778  -0.1122873  -0.0223952
    9   0.0173357   0.0003598   0.0088838  -0.0304114  -0.0223912  -0.0917595
   10  -0.0033800  -0.0058901  -0.0037219  -0.0348980   0.0336542   0.0173417
   11  -0.0058895   0.0025504   0.0001348   0.0087680   0.0075248   0.0003605
   12  -0.0037231   0.0001338   0.0016456   0.0027973   0.0017175   0.0088841
   13  -0.3645602  -0.0410903  -0.0416639  -0.0170464  -0.0080435  -0.0060074
   14  -0.0475192  -0.0670670  -0.0172794   0.0259122   0.0087812   0.0025355
   15  -0.0454265  -0.0169282  -0.0543067   0.0138310   0.0006757   0.0080189
   16  -0.0944976  -0.0757029  -0.0470165   0.0124206   0.0201784   0.0120949
   17  -0.0701008  -0.2635428  -0.1325078  -0.0108139  -0.0142714  -0.0128740
   18  -0.0437432  -0.1328068  -0.1231526  -0.0060047  -0.0111827  -0.0000996
   19   0.0116329   0.0216416   0.0128504  -0.0986858  -0.0785587  -0.0485790
   20  -0.0107588  -0.0141063  -0.0133861  -0.0766413  -0.2571581  -0.1255176
   21  -0.0060766  -0.0116157   0.0006863  -0.0474598  -0.1256245  -0.1254499
   22   0.0017463  -0.0007115  -0.0002590  -0.0067047  -0.0289115  -0.0174963
   23   0.0003787   0.0004998   0.0009573   0.0020520  -0.0007277  -0.0028290
   24   0.0003765   0.0008977  -0.0005573   0.0006013  -0.0045181   0.0016973
   25   0.0000730   0.0000739   0.0000363   0.0012527   0.0008435   0.0010586
   26   0.0003772   0.0003686   0.0001204  -0.0024045  -0.0014304   0.0043723
   27   0.0002134   0.0001042   0.0002701  -0.0008394   0.0045474  -0.0065200
   28  -0.0010804  -0.0004337  -0.0002952   0.0002992   0.0039998   0.0015658
   29   0.0012093   0.0006039   0.0006023   0.0015907   0.0004214  -0.0081389
   30   0.0006660   0.0005133   0.0000226   0.0001557  -0.0080078   0.0098224
            7           8           9          10          11          12
    1  -0.0348968   0.0336570   0.0173357  -0.0033800  -0.0058895  -0.0037231
    2   0.0087680   0.0075245   0.0003598  -0.0058901   0.0025504   0.0001338
    3   0.0027968   0.0017192   0.0088838  -0.0037219   0.0001348   0.0016456
    4  -0.2844133  -0.0326778  -0.0304114  -0.0348980   0.0087680   0.0027973
    5  -0.0326777  -0.1122873  -0.0223912   0.0336542   0.0075248   0.0017175
    6  -0.0304130  -0.0223952  -0.0917595   0.0173417   0.0003605   0.0088841
    7   0.7834991  -0.1376965  -0.0463915  -0.3557270   0.2218934   0.1137382
    8  -0.1376965   0.7117025   0.3159741   0.2272017  -0.3426000  -0.1511799
    9  -0.0463915   0.3159741   0.3403796   0.1168318  -0.1514613  -0.1449328
   10  -0.3557270   0.2272017   0.1168318   0.8407138  -0.1285259  -0.0365202
   11   0.2218934  -0.3426000  -0.1514613  -0.1285259   0.6756386   0.3108830
   12   0.1137382  -0.1511799  -0.1449328  -0.0365202   0.3108830   0.3115597
   13   0.0002996   0.0040025   0.0015607  -0.0010803  -0.0004336  -0.0002952
   14   0.0015913   0.0004161  -0.0081362   0.0012103   0.0006047   0.0006026
   15   0.0001541  -0.0080043   0.0098272   0.0006643   0.0005122   0.0000217
   16   0.0012526   0.0008425   0.0010602   0.0000730   0.0000738   0.0000364
   17  -0.0024052  -0.0014272   0.0043682   0.0003770   0.0003687   0.0001206
   18  -0.0008374   0.0045476  -0.0065228   0.0002137   0.0001038   0.0002700
   19  -0.0067046  -0.0289133  -0.0174931   0.0017464  -0.0007105  -0.0002609
   20   0.0020549  -0.0007276  -0.0028281   0.0003785   0.0005003   0.0009569
   21   0.0005968  -0.0045187   0.0016975   0.0003770   0.0008976  -0.0005579
   22  -0.0986836  -0.0785452  -0.0485905   0.0116327   0.0216386   0.0128566
   23  -0.0766282  -0.2571182  -0.1255342  -0.0107578  -0.0140994  -0.0133889
   24  -0.0474694  -0.1256376  -0.1254854  -0.0060779  -0.0116221   0.0006797
   25   0.0124207   0.0201751   0.0121019  -0.0944956  -0.0756824  -0.0470380
   26  -0.0108093  -0.0142638  -0.0128796  -0.0700807  -0.2634226  -0.1325650
   27  -0.0060121  -0.0111877  -0.0001076  -0.0437650  -0.1328785  -0.1232742
   28  -0.0170466  -0.0080461  -0.0060037  -0.3645850  -0.0411321  -0.0415910
   29   0.0259092   0.0087810   0.0025284  -0.0475672  -0.0670655  -0.0172807
   30   0.0138376   0.0006824   0.0080201  -0.0453434  -0.0169300  -0.0542960
           13          14          15          16          17          18
    1  -0.3645602  -0.0475192  -0.0454265  -0.0944976  -0.0701008  -0.0437432
    2  -0.0410903  -0.0670670  -0.0169282  -0.0757029  -0.2635428  -0.1328068
    3  -0.0416639  -0.0172794  -0.0543067  -0.0470165  -0.1325078  -0.1231526
    4  -0.0170464   0.0259122   0.0138310   0.0124206  -0.0108139  -0.0060047
    5  -0.0080435   0.0087812   0.0006757   0.0201784  -0.0142714  -0.0111827
    6  -0.0060074   0.0025355   0.0080189   0.0120949  -0.0128740  -0.0000996
    7   0.0002996   0.0015913   0.0001541   0.0012526  -0.0024052  -0.0008374
    8   0.0040025   0.0004161  -0.0080043   0.0008425  -0.0014272   0.0045476
    9   0.0015607  -0.0081362   0.0098272   0.0010602   0.0043682  -0.0065228
   10  -0.0010803   0.0012103   0.0006643   0.0000730   0.0003770   0.0002137
   11  -0.0004336   0.0006047   0.0005122   0.0000738   0.0003687   0.0001038
   12  -0.0002952   0.0006026   0.0000217   0.0000364   0.0001206   0.0002700
   13   0.3850992   0.0439298   0.0452436  -0.0040098   0.0013097   0.0003390
   14   0.0439298   0.0583813   0.0205112  -0.0252646   0.0005302  -0.0032716
   15   0.0452436   0.0205112   0.0418377  -0.0151796  -0.0018162   0.0018716
   16  -0.0040098  -0.0252646  -0.0151796   0.0874392   0.0767541   0.0481029
   17   0.0013097   0.0005302  -0.0018162   0.0767541   0.2759484   0.1493079
   18   0.0003390  -0.0032716   0.0018716   0.0481029   0.1493079   0.1172896
   19   0.0011857  -0.0003436   0.0003449  -0.0024289   0.0038271   0.0013814
   20   0.0001496  -0.0012344   0.0044250   0.0036138   0.0016029  -0.0065750
   21   0.0006340   0.0043974  -0.0061915   0.0012571  -0.0065611   0.0094313
   22   0.0003032   0.0003794   0.0002544  -0.0002078   0.0011343   0.0006346
   23  -0.0001016   0.0001598   0.0002608  -0.0002396   0.0005022   0.0001074
   24  -0.0000266   0.0002870  -0.0001296  -0.0001676   0.0001829   0.0003927
   25   0.0000370  -0.0000953  -0.0000717  -0.0000783  -0.0001604  -0.0001158
   26   0.0000782   0.0000602  -0.0001547  -0.0001603   0.0002288  -0.0000663
   27   0.0000295  -0.0001640   0.0002379  -0.0001159  -0.0000658   0.0002820
   28  -0.0002278   0.0001997   0.0001856   0.0000370   0.0000781   0.0000296
   29   0.0001992  -0.0006320   0.0005184  -0.0000952   0.0000602  -0.0001642
   30   0.0001863   0.0005176  -0.0011871  -0.0000719  -0.0001545   0.0002378
           19          20          21          22          23          24
    1   0.0116329  -0.0107588  -0.0060766   0.0017463   0.0003787   0.0003765
    2   0.0216416  -0.0141063  -0.0116157  -0.0007115   0.0004998   0.0008977
    3   0.0128504  -0.0133861   0.0006863  -0.0002590   0.0009573  -0.0005573
    4  -0.0986858  -0.0766413  -0.0474598  -0.0067047   0.0020520   0.0006013
    5  -0.0785587  -0.2571581  -0.1256245  -0.0289115  -0.0007277  -0.0045181
    6  -0.0485790  -0.1255176  -0.1254499  -0.0174963  -0.0028290   0.0016973
    7  -0.0067046   0.0020549   0.0005968  -0.0986836  -0.0766282  -0.0474694
    8  -0.0289133  -0.0007276  -0.0045187  -0.0785452  -0.2571182  -0.1256376
    9  -0.0174931  -0.0028281   0.0016975  -0.0485905  -0.1255342  -0.1254854
   10   0.0017464   0.0003785   0.0003770   0.0116327  -0.0107578  -0.0060779
   11  -0.0007105   0.0005003   0.0008976   0.0216386  -0.0140994  -0.0116221
   12  -0.0002609   0.0009569  -0.0005579   0.0128566  -0.0133889   0.0006797
   13   0.0011857   0.0001496   0.0006340   0.0003032  -0.0001016  -0.0000266
   14  -0.0003436  -0.0012344   0.0043974   0.0003794   0.0001598   0.0002870
   15   0.0003449   0.0044250  -0.0061915   0.0002544   0.0002608  -0.0001296
   16  -0.0024289   0.0036138   0.0012571  -0.0002078  -0.0002396  -0.0001676
   17   0.0038271   0.0016029  -0.0065611   0.0011343   0.0005022   0.0001829
   18   0.0013814  -0.0065750   0.0094313   0.0006346   0.0001074   0.0003927
   19   0.0994053   0.0816853   0.0514389  -0.0062463  -0.0001410  -0.0005727
   20   0.0816853   0.2690275   0.1433286  -0.0001407   0.0014341  -0.0007726
   21   0.0514389   0.1433286   0.1178599  -0.0005732  -0.0007732   0.0022608
   22  -0.0062463  -0.0001407  -0.0005732   0.0994034   0.0816738   0.0514455
   23  -0.0001410   0.0014341  -0.0007732   0.0816738   0.2689786   0.1433495
   24  -0.0005727  -0.0007726   0.0022608   0.0514455   0.1433495   0.1179044
   25  -0.0002078  -0.0002398  -0.0001674  -0.0024291   0.0036124   0.0012598
   26   0.0011337   0.0005019   0.0001825   0.0038257   0.0016074  -0.0065660
   27   0.0006358   0.0001081   0.0003931   0.0013846  -0.0065756   0.0094271
   28   0.0003032  -0.0001016  -0.0000267   0.0011859   0.0001512   0.0006311
   29   0.0003794   0.0001599   0.0002870  -0.0003430  -0.0012366   0.0043994
   30   0.0002544   0.0002607  -0.0001297   0.0003434   0.0044258  -0.0061897
           25          26          27          28          29          30
    1   0.0000730   0.0003772   0.0002134  -0.0010804   0.0012093   0.0006660
    2   0.0000739   0.0003686   0.0001042  -0.0004337   0.0006039   0.0005133
    3   0.0000363   0.0001204   0.0002701  -0.0002952   0.0006023   0.0000226
    4   0.0012527  -0.0024045  -0.0008394   0.0002992   0.0015907   0.0001557
    5   0.0008435  -0.0014304   0.0045474   0.0039998   0.0004214  -0.0080078
    6   0.0010586   0.0043723  -0.0065200   0.0015658  -0.0081389   0.0098224
    7   0.0124207  -0.0108093  -0.0060121  -0.0170466   0.0259092   0.0138376
    8   0.0201751  -0.0142638  -0.0111877  -0.0080461   0.0087810   0.0006824
    9   0.0121019  -0.0128796  -0.0001076  -0.0060037   0.0025284   0.0080201
   10  -0.0944956  -0.0700807  -0.0437650  -0.3645850  -0.0475672  -0.0453434
   11  -0.0756824  -0.2634226  -0.1328785  -0.0411321  -0.0670655  -0.0169300
   12  -0.0470380  -0.1325650  -0.1232742  -0.0415910  -0.0172807  -0.0542960
   13   0.0000370   0.0000782   0.0000295  -0.0002278   0.0001992   0.0001863
   14  -0.0000953   0.0000602  -0.0001640   0.0001997  -0.0006320   0.0005176
   15  -0.0000717  -0.0001547   0.0002379   0.0001856   0.0005184  -0.0011871
   16  -0.0000783  -0.0001603  -0.0001159   0.0000370  -0.0000952  -0.0000719
   17  -0.0001604   0.0002288  -0.0000658   0.0000781   0.0000602  -0.0001545
   18  -0.0001158  -0.0000663   0.0002820   0.0000296  -0.0001642   0.0002378
   19  -0.0002078   0.0011337   0.0006358   0.0003032   0.0003794   0.0002544
   20  -0.0002398   0.0005019   0.0001081  -0.0001016   0.0001599   0.0002607
   21  -0.0001674   0.0001825   0.0003931  -0.0000267   0.0002870  -0.0001297
   22  -0.0024291   0.0038257   0.0013846   0.0011859  -0.0003430   0.0003434
   23   0.0036124   0.0016074  -0.0065756   0.0001512  -0.0012366   0.0044258
   24   0.0012598  -0.0065660   0.0094271   0.0006311   0.0043994  -0.0061897
   25   0.0874373   0.0767323   0.0481269  -0.0040098  -0.0252593  -0.0151906
   26   0.0767323   0.2758215   0.1493771   0.0013078   0.0005283  -0.0018207
   27   0.0481269   0.1493771   0.1174184   0.0003421  -0.0032652   0.0018732
   28  -0.0040098   0.0013078   0.0003421   0.3851243   0.0439768   0.0451624
   29  -0.0252593   0.0005283  -0.0032652   0.0439768   0.0583795   0.0205133
   30  -0.0151906  -0.0018207   0.0018732   0.0451624   0.0205133   0.0418263
 Gradient time:  CPU 21.36 s  wall 21.10 s
 ------------------------------------------------------------------------------
                     drvman        : Timing summary (seconds)
 ------------------------------------------------------------------------------
     job step          cpu (% of tot)      sys (% of tot)     wall (% of tot)
 ------------------------------------------------------------------------------
  cpscf_lag         0.4049E+01 (19.0)   0.7000E-05 (17.1)   0.4031E+01 (19.1)
  iterzp            0.8507E+01 (39.8)   0.2300E-04 (56.1)   0.8373E+01 (39.7)
  make_fx           0.1412E+01 ( 6.6)   0.3000E-05 ( 7.3)   0.1395E+01 ( 6.6)
  scf_hess          0.7386E+01 (34.6)   0.7000E-05 (17.1)   0.7293E+01 (34.6)
 ------------------------------------------------------------------------------
   Grand Totals     0.2136E+02          0.4100E-04          0.2110E+02
 ------------------------------------------------------------------------------
 JobOver = TRUE
 **********************************************************************
 **                                                                  **
 **                       VIBRATIONAL ANALYSIS                       **
 **                       --------------------                       **
 **                                                                  **
 **        VIBRATIONAL FREQUENCIES (CM**-1) AND NORMAL MODES         **
 **     FORCE CONSTANTS (mDYN/ANGSTROM) AND REDUCED MASSES (AMU)     **
 **                  INFRARED INTENSITIES (KM/MOL)                   **
 **                                                                  **
 **********************************************************************


 Mode:                 1                      2                      3
 Frequency:       170.53                 317.60                 547.93
 Force Cnst:      0.0436                 0.1284                 0.4800
 Red. Mass:       2.5471                 2.1609                 2.7139
 IR Active:          YES                    YES                    YES
 IR Intens:        0.178                  3.684                  0.000
 Raman Active:       YES                    YES                    YES
               X      Y      Z        X      Y      Z        X      Y      Z
 C          0.008  0.089 -0.152   -0.110 -0.078 -0.052    0.200 -0.077 -0.034
 C         -0.009 -0.100  0.171    0.127  0.104  0.067    0.060 -0.143 -0.080
 C         -0.009 -0.100  0.171    0.127  0.104  0.067   -0.060  0.143  0.080
 C          0.008  0.089 -0.152   -0.110 -0.078 -0.052   -0.200  0.077  0.034
 H          0.011  0.123 -0.210   -0.051 -0.363 -0.215    0.150  0.179  0.111
 H          0.021  0.222 -0.380   -0.427  0.010 -0.017    0.503 -0.163 -0.067
 H         -0.020 -0.212  0.362    0.280  0.054  0.047    0.179 -0.175 -0.093
 H         -0.020 -0.212  0.362    0.280  0.054  0.047   -0.179  0.176  0.092
 H          0.021  0.222 -0.380   -0.427  0.010 -0.018   -0.503  0.163  0.068
 H          0.011  0.123 -0.210   -0.051 -0.363 -0.215   -0.150 -0.178 -0.113
 TransDip   0.001  0.007 -0.012    0.058 -0.019 -0.008    0.000  0.000 -0.000

 Mode:                 4                      5                      6
 Frequency:       578.21                 844.74                 952.40
 Force Cnst:      0.2149                 0.6894                 0.9840
 Red. Mass:       1.0910                 1.6398                 1.8413
 IR Active:          YES                    YES                    YES
 IR Intens:       11.779                  0.000                  0.000
 Raman Active:       YES                    YES                    YES
               X      Y      Z        X      Y      Z        X      Y      Z
 C         -0.001 -0.010  0.018   -0.001 -0.005  0.009   -0.128  0.008 -0.002
 C          0.003  0.029 -0.050    0.008  0.085 -0.146   -0.131 -0.054 -0.039
 C          0.003  0.029 -0.050   -0.008 -0.085  0.146    0.131  0.054  0.039
 C         -0.001 -0.010  0.018    0.001  0.005 -0.009    0.128 -0.008  0.002
 H         -0.024 -0.252  0.432   -0.028 -0.301  0.515   -0.227  0.460  0.256
 H          0.018  0.189 -0.325    0.015  0.165 -0.283    0.325 -0.113 -0.048
 H         -0.015 -0.163  0.278   -0.004 -0.042  0.072   -0.045 -0.089 -0.054
 H         -0.015 -0.162  0.278    0.004  0.042 -0.072    0.045  0.088  0.054
 H          0.017  0.190 -0.324   -0.016 -0.165  0.283   -0.325  0.113  0.048
 H         -0.024 -0.253  0.432    0.028  0.301 -0.515    0.227 -0.460 -0.257
 TransDip  -0.005 -0.055  0.095    0.000 -0.000 -0.000   -0.000 -0.000  0.000

 Mode:                 7                      8                      9
 Frequency:      1048.92                1050.01                1069.41
 Force Cnst:      0.8224                 0.8749                 0.8020
 Red. Mass:       1.2687                 1.3469                 1.1903
 IR Active:          YES                    YES                    YES
 IR Intens:        0.000                 88.910                  2.573
 Raman Active:       YES                    YES                    YES
               X      Y      Z        X      Y      Z        X      Y      Z
 C         -0.005 -0.054  0.093    0.006  0.060 -0.103   -0.070 -0.037 -0.025
 C          0.001  0.009 -0.015   -0.002 -0.018  0.030    0.020  0.028  0.017
 C         -0.001 -0.009  0.015   -0.002 -0.018  0.030    0.020  0.028  0.017
 C          0.005  0.054 -0.093    0.006  0.060 -0.103   -0.070 -0.037 -0.025
 H          0.017  0.186 -0.319   -0.022 -0.240  0.411   -0.148  0.346  0.194
 H          0.027  0.286 -0.489   -0.024 -0.256  0.439    0.369 -0.156 -0.071
 H          0.008  0.086 -0.147   -0.001 -0.010  0.016    0.373 -0.084 -0.028
 H         -0.008 -0.086  0.147   -0.001 -0.009  0.016    0.373 -0.083 -0.029
 H         -0.027 -0.286  0.490   -0.024 -0.256  0.437    0.369 -0.156 -0.071
 H         -0.017 -0.187  0.319   -0.022 -0.240  0.410   -0.148  0.346  0.194
 TransDip   0.000 -0.000  0.000   -0.014 -0.152  0.260    0.046 -0.021 -0.010

 Mode:                10                     11                     12
 Frequency:      1099.37                1143.46                1306.72
 Force Cnst:      0.8914                 0.8496                 1.8583
 Red. Mass:       1.2519                 1.1029                 1.8471
 IR Active:          YES                    YES                    YES
 IR Intens:        0.000                 29.904                  0.000
 Raman Active:       YES                    YES                    YES
               X      Y      Z        X      Y      Z        X      Y      Z
 C         -0.002 -0.022  0.038   -0.001 -0.006  0.010   -0.061 -0.022 -0.016
 C          0.005  0.048 -0.083    0.003  0.033 -0.056    0.131  0.107  0.070
 C         -0.005 -0.048  0.083    0.003  0.033 -0.056   -0.131 -0.107 -0.070
 C          0.002  0.022 -0.038   -0.001 -0.006  0.010    0.061  0.022  0.016
 H          0.015  0.164 -0.280    0.012  0.126 -0.215   -0.105  0.209  0.116
 H         -0.008 -0.084  0.143   -0.014 -0.150  0.256    0.232 -0.099 -0.045
 H         -0.028 -0.301  0.514   -0.028 -0.296  0.507    0.572 -0.025  0.016
 H          0.028  0.301 -0.514   -0.028 -0.296  0.507   -0.572  0.025 -0.016
 H          0.008  0.084 -0.143   -0.014 -0.150  0.256   -0.232  0.099  0.045
 H         -0.015 -0.164  0.280    0.012  0.126 -0.215    0.105 -0.209 -0.116
 TransDip   0.000 -0.000 -0.000   -0.008 -0.088  0.151   -0.000  0.000 -0.000

 Mode:                13                     14                     15
 Frequency:      1409.34                1409.79                1511.78
 Force Cnst:      1.5832                 1.5030                 1.6349
 Red. Mass:       1.3529                 1.2836                 1.2141
 IR Active:          YES                    YES                    YES
 IR Intens:        0.000                  2.493                  5.316
 Raman Active:       YES                    YES                    YES
               X      Y      Z        X      Y      Z        X      Y      Z
 C          0.004  0.079  0.046    0.016  0.067  0.040   -0.019  0.003  0.001
 C         -0.023 -0.072 -0.043   -0.049 -0.050 -0.032    0.076 -0.051 -0.026
 C          0.022  0.071  0.042   -0.049 -0.052 -0.033    0.076 -0.051 -0.026
 C         -0.003 -0.077 -0.045    0.016  0.069  0.041   -0.019  0.003  0.001
 H         -0.003  0.054  0.031    0.041 -0.077 -0.043   -0.128  0.436  0.248
 H         -0.361  0.189  0.091   -0.218  0.131  0.064   -0.434  0.135  0.055
 H          0.497 -0.241 -0.114    0.568 -0.248 -0.114   -0.116  0.001 -0.006
 H         -0.482  0.235  0.111    0.581 -0.254 -0.117   -0.115  0.001 -0.006
 H          0.355 -0.185 -0.089   -0.227  0.135  0.067   -0.434  0.135  0.055
 H          0.004 -0.056 -0.033    0.041 -0.076 -0.042   -0.128  0.436  0.248
 TransDip  -0.000  0.001  0.000   -0.011  0.043  0.024   -0.026  0.060  0.034

 Mode:                16                     17                     18
 Frequency:      1574.36                1798.85                1882.23
 Force Cnst:      1.7680                 7.3632                10.0623
 Red. Mass:       1.2107                 3.8621                 4.8206
 IR Active:          YES                    YES                    YES
 IR Intens:        0.000                 20.848                  0.000
 Raman Active:       YES                    YES                    YES
               X      Y      Z        X      Y      Z        X      Y      Z
 C          0.021 -0.045 -0.025    0.190 -0.169 -0.088    0.168 -0.156 -0.082
 C          0.077 -0.014 -0.004   -0.181  0.140  0.072   -0.277  0.174  0.087
 C         -0.077  0.014  0.004   -0.181  0.140  0.072    0.277 -0.174 -0.087
 C         -0.021  0.045  0.025    0.190 -0.168 -0.088   -0.168  0.156  0.082
 H         -0.090  0.438  0.251    0.125  0.308  0.187    0.133  0.202  0.125
 H         -0.403  0.083  0.026   -0.424 -0.030 -0.041   -0.305 -0.060 -0.052
 H         -0.221  0.087  0.039    0.190  0.061  0.046    0.390 -0.012  0.015
 H          0.221 -0.087 -0.039    0.190  0.061  0.046   -0.390  0.012 -0.015
 H          0.403 -0.083 -0.026   -0.424 -0.030 -0.040    0.306  0.060  0.052
 H          0.090 -0.438 -0.251    0.125  0.308  0.187   -0.133 -0.202 -0.126
 TransDip   0.000  0.000 -0.000   -0.113  0.082  0.042    0.000 -0.000 -0.000

 Mode:                19                     20                     21
 Frequency:      3296.15                3300.22                3317.17
 Force Cnst:      6.8007                 6.8079                 7.0861
 Red. Mass:       1.0624                 1.0609                 1.0930
 IR Active:          YES                    YES                    YES
 IR Intens:        0.000                 18.459                  0.000
 Raman Active:       YES                    YES                    YES
               X      Y      Z        X      Y      Z        X      Y      Z
 C         -0.025  0.029  0.016   -0.027  0.034  0.018    0.010 -0.025 -0.014
 C          0.014  0.021  0.013    0.009  0.008  0.005    0.014  0.045  0.027
 C         -0.014 -0.021 -0.013    0.009  0.008  0.005   -0.014 -0.045 -0.027
 C          0.024 -0.029 -0.016   -0.027  0.034  0.018   -0.010  0.025  0.014
 H          0.397  0.062  0.058    0.430  0.066  0.062   -0.159 -0.022 -0.022
 H         -0.137 -0.376 -0.227   -0.153 -0.428 -0.258    0.093  0.266  0.160
 H         -0.113 -0.284 -0.172   -0.058 -0.138 -0.084   -0.190 -0.486 -0.295
 H          0.113  0.284  0.172   -0.059 -0.140 -0.085    0.192  0.492  0.298
 H          0.137  0.374  0.226   -0.154 -0.429 -0.259   -0.093 -0.268 -0.162
 H         -0.395 -0.061 -0.057    0.432  0.066  0.062    0.160  0.022  0.022
 TransDip  -0.000  0.000  0.000   -0.034  0.116  0.066   -0.000 -0.000 -0.000

 Mode:                22                     23                     24
 Frequency:      3320.04                3393.44                3394.34
 Force Cnst:      7.1092                 7.5757                 7.5762
 Red. Mass:       1.0947                 1.1166                 1.1161
 IR Active:          YES                    YES                    YES
 IR Intens:       14.591                  0.013                 31.827
 Raman Active:       YES                    YES                    YES
               X      Y      Z        X      Y      Z        X      Y      Z
 C         -0.001  0.018  0.010   -0.057 -0.035 -0.023   -0.055 -0.033 -0.022
 C         -0.013 -0.050 -0.030   -0.002 -0.007 -0.004   -0.002 -0.009 -0.006
 C         -0.013 -0.049 -0.030    0.002  0.007  0.004   -0.002 -0.010 -0.006
 C         -0.001  0.017  0.010    0.055  0.033  0.023   -0.057 -0.034 -0.023
 H          0.016  0.004  0.003    0.558  0.073  0.073    0.531  0.070  0.070
 H         -0.060 -0.169 -0.102    0.119  0.355  0.214    0.113  0.341  0.205
 H          0.214  0.549  0.333    0.024  0.069  0.041    0.038  0.093  0.056
 H          0.212  0.544  0.329   -0.023 -0.065 -0.039    0.039  0.096  0.058
 H         -0.059 -0.167 -0.101   -0.114 -0.341 -0.206    0.117  0.354  0.213
 H          0.015  0.004  0.003   -0.536 -0.070 -0.070    0.553  0.073  0.073
 TransDip  -0.091 -0.069 -0.045   -0.003 -0.002 -0.001   -0.137 -0.098 -0.065

 STANDARD THERMODYNAMIC QUANTITIES AT   298.18 K  AND     1.00 ATM

   This Molecule has  0 Imaginary Frequencies
   Zero point vibrational energy:       56.807 kcal/mol

   Atom    1 Element C  Has Mass   12.00000
   Atom    2 Element C  Has Mass   12.00000
   Atom    3 Element C  Has Mass   12.00000
   Atom    4 Element C  Has Mass   12.00000
   Atom    5 Element H  Has Mass    1.00783
   Atom    6 Element H  Has Mass    1.00783
   Atom    7 Element H  Has Mass    1.00783
   Atom    8 Element H  Has Mass    1.00783
   Atom    9 Element H  Has Mass    1.00783
   Atom   10 Element H  Has Mass    1.00783
   Molecular Mass:    54.046980 amu
   Principal axes and moments of inertia in atomic units:
                             1           2           3
    Eigenvalues --       42.66093   405.55298   448.21391
          X               0.90524     0.42228    -0.04707
          Y              -0.38653     0.77243    -0.50394
          Z              -0.17645     0.47438     0.86246
   Rotational Symmetry Number is   1
   The Molecule is an Asymmetric Top
   Translational Enthalpy:        0.889 kcal/mol
   Rotational Enthalpy:           0.889 kcal/mol
   Vibrational Enthalpy:         57.844 kcal/mol
   gas constant (RT):             0.593 kcal/mol
   Translational Entropy:        37.884  cal/mol.K
   Rotational Entropy:           23.565  cal/mol.K
   Vibrational Entropy:           5.502  cal/mol.K

   Total Enthalpy:               60.214 kcal/mol
   Total Entropy:                66.952  cal/mol.K

Archival summary:
1\1\Andreass-MacBook-Air.local\FREQ\HF\BasisUnspecified\46\SunMar921:31:532014SunMar921:31:532014\0\\#,FREQ,HF,BasisUnspecified,\\0,1\C\H,1,1.08537\C,1,1.32635,2,119.533\H,3,1.08223,1,121.467,2,0.00531181,0\H,3,1.08418,1,121.602,2,179.99,0\C,1,1.4685,2,116.39,3,179.995,0\H,6,1.08536,1,116.39,2,179.991,0\C,6,1.32637,1,124.077,2,-0.014837,0\H,8,1.08224,6,121.466,1,-179.99,0\H,8,1.08418,6,121.603,1,-0.00365169,0\\HF=-154.934969\\@

 Total job time:  26.01s(wall), 26.24s(cpu) 
 Sun Mar  9 21:31:53 2014

        *************************************************************
        *                                                           *
        *  Thank you very much for using Q-Chem.  Have a nice day.  *
        *                                                           *
        *************************************************************


*** MISSION COMPLETED -- STARFLEET OUT ***

 
*************************************************************
Job 2 of 2 
*************************************************************
 
mFile = /Applications/qchem/bin/mpi/machines
                  Welcome to Q-Chem
     A Quantum Leap Into The Future Of Chemistry

 Y. Shao, L. Fusti-Molnar, Y. Jung, J. Kussmann, C. Ochsenfeld,
 S. T. Brown, A. T. B. Gilbert, L. V. Slipchenko,S. V. Levchenko,
 D. P. O'Neill, R. A. DiStasio Jr., R. C. Lochan, T. Wang,
 G. J. O. Beran, N. A. Besley, J. M. Herbert, C. Y. Lin,
 T. Van Voorhis, S. H. Chien, A. Sodt, R. P. Steele, 
 V. A. Rassolov, P. E. Maslen, P. P. Korambath, R. D. Adamson,
 B. Austin, J. Baker, E. F. C. Byrd, H. Dachsel, R. J. Doerksen,
 A. Dreuw, B. D. Dunietz, A. D. Dutoi, T. R. Furlani,
 S. R. Gwaltney, A. Heyden, S. Hirata, C.-P. Hsu, G. Kedziora,
 R. Z. Khaliullin, P. Klunzinger, A. M. Lee, M. S. Lee, W. Liang,
 I. Lotan, N. Nair, B. Peters, E. I. Proynov, P. A. Pieniazek, 
 Y. M. Rhee, J. Ritchie, E. Rosta, C. D. Sherrill, 
 A. C. Simmonett, J. E. Subotnik, H. L. Woodcock III,
 W. Zhang, A. T. Bell, A. K. Chakraborty, D. M. Chipman,
 F. J. Keil, A. Warshel, W. J. Hehre, H. F. Schaefer III,
 J. Kong, A. I. Krylov, P. M. W. Gill, M. Head-Gordon,

 Additional authors for Version 3.1: 
 Z. Gan, Y. Zhao, N. E. Schultz, D. Truhlar, E. Epifanovsky and M. Oana.

 Additional authors for Version 3.2: 
 R. Baer, B. R. Brooks, D. Casanova, J.-D. Chai, C.-L. Cheng, 
 C. Cramer, D. Crittenden, A. Ghysels, G. Hawkins, E. G. Hohenstein, 
 C. Kelley, W. Kurlancheek, D. Liotard, E. Livshits, P. Manohar, 
 A. Marenich, D. Neuhauser, R. Olson, M. A. Rohrdanz, K. S. Thanthiriwatte, 
 A. J. W. Thom, V. Vanovschi, C. F. Williams, Q. Wu and Z.-Q. You. 

 Additional authors for Version 4.0: 
 A. Aspuru-Guzik, C. Chang, R. G. Edgar, E. Sundstrom, J. Parkhill, K. Lawler,
 M. Gordon, M. Schmidt, N. Shenvi, D. Lambrecht, M. Goldey, R. Olivares-Amaya,
 Y. Bernard, L. Vogt, M. Watson, J. Liu, S. Yeganeh, B. Kaduk, O. Vydrov, X. Xu, 
 I. Kaliman, K. Khistyaev, N. Russ, I.Y. Zhang, W.A. Goddard III, F. Liu, R. King ,
 A. Landau, M. Wormit, A. Dreuw, M. Diedenhofen, A. Klamt, A.W. Lange, D. Ghosh,
 D. Kosenkov, T. Kus, A. Landau, D. Zuev, J. Deng, S.P. Mao, Y.C. Su, D. Small,
 L. D. Jacobson
 
 Q-Chem, Version 4.0.1, Q-Chem, Inc., Pittsburgh, PA (2007).


 MAC (Intel) OSX Version 4.0.1.0 

 Q-chem begins on Sun Mar  9 21:31:53 2014  

Andreass-MacBook-Air.local
Host: 0
 Using version located at /Users/hauser/Scripts//qchem


theFileMan(): MAXOPENFILES=206 MAX_SUB_FILE_NUM=16
Maximum size of a physical file is 2.0 GB, maximum size of a tmp-file is 32.0 GB

Symmetry disabled for AIMD jobs.

Total Memory Limit in MB = 16000
Mega-Array Size in MB = 4000
Finally everything over in PARseQInput

--------------------------------------------------------------
User input:
--------------------------------------------------------------

$rem
   JOBTYPE  aimd
   GEOM_OPT_HESSIAN read
   EXCHANGE hf
   BASIS    GEN
   SCF_ALGORITHM  RCA_DIIS
   MAX_RCA_CYCLES 10
   THRESH_RCA_SWITCH 7
   SCF_GUESS      READ
   SCF_CONVERGENCE 9
   THRESH 14
   INCFOCK 0
   INCDFT  0
   MAX_SCF_CYCLES 500
   SYMMETRY       FALSE
   SYM_IGNORE     TRUE
   MEM_TOTAL 16000
   MEM_STATIC 4000
   MOLDEN_FORMAT TRUE
   time_step                      20
   aimd_steps                   200
   aimd_temp                     298
   aimd_init_veloc    quasiclassical
   aimd_qct_which_trajectory       1
$end


$comment
butadiene TS AIMD
$end

$basis
   H
   cc-pVDZ 
   **** 
   C
   cc-pVDZ 
   **** 
$end

$molecule
read
$end



--------------------------------------------------------------
 ----------------------------------------------------
       Standard Nuclear Orientation (Angstroms)
    I     Atom         X            Y            Z
 ----------------------------------------------------
    1      C      -2.164220     0.878920     0.580330
    2      C      -1.278890     0.005800     0.118700
    3      C       0.174220     0.144510     0.279050
    4      C       1.059560    -0.728410    -0.182900
    5      H      -3.227270     0.734550     0.437790
    6      H      -1.857230     1.769440     1.117150
    7      H      -1.623560    -0.874540    -0.414420
    8      H       0.518880     1.024780     0.812300
    9      H       0.752590    -1.618690    -0.720130
   10      H       2.122620    -0.583900    -0.040630
 ----------------------------------------------------
 Nuclear Repulsion Energy =   103.9908693633 hartrees
 There are       15 alpha and       15 beta electrons

 Q-Chem warning in module /Applications/qchem/forms1/BasisType.C, line 1125:

 Setting pure/cartesian flag to 2111 for general basis


 Requested basis set is non-standard
 There are 42 shells and 86 basis functions

Total QAlloc Memory Limit  16000 MB
Mega-Array Size      3911 MB
MEM_STATIC part      4000 MB

finished with qalloc call

                       Distance Matrix (Angstroms)
             C (  1)   C (  2)   C (  3)   C (  4)   H (  5)   H (  6)
   C (  2)  1.326367
   C (  3)  2.469500  1.468496
   C (  4)  3.682226  2.469489  1.326354
   H (  5)  1.082236  2.104538  3.455934  4.571916
   H (  6)  1.084179  2.107559  2.733057  4.054263  1.846493
   H (  7)  2.087214  1.085363  2.179765  2.697052  2.426380  3.064464
   H (  8)  2.697056  2.179766  1.085367  2.087207  3.775994  2.508655
   H (  9)  4.054261  2.733041  2.107545  1.084179  4.766320  4.654695
   H ( 10)  4.571918  3.455923  2.104528  1.082229  5.530689  4.766327
             H (  7)   H (  8)   H (  9)
   H (  8)  3.114853
   H (  9)  2.508646  3.064457
   H ( 10)  3.775984  2.426381  1.846481

 Job number = 2, Threshold = 1.00E-14
Integral type ranges set in mkLRange.C for JobNum: 2  <1-21|1-21>
Symmetry turned off temporarily
 Using the largest function pair in Schwarz integrals
Total number of integrals generated =           46271
Symmetry turned back on
 A cutoff of  1.0D-14 yielded    897 shell pairs
 There are      3801 function pairs (      4175 Cartesian)
 Job number = 11, Threshold = 1.00E-14
Integral type ranges set in mkLRange.C for JobNum: 11  <1-21|22-22>
Total number of integrals generated =           41750
 Smallest overlap matrix eigenvalue = 2.27E-03
 Multipole matrices computed through 2nd order

  Scale SEOQF with 1.000000e-01/1.000000e-01/1.000000e+00

 Standard Electronic Orientation quadrupole field applied
 Nucleus-field energy     =    -0.0000000024 hartrees
 Guess MOs from SCF MO coefficient file
Reading MOs from coefficient file
Reading MOs from coefficient file
scfman initvdwdat 
 A restricted Hartree-Fock SCF calculation will be
 performed using Relaxed Constraint Minimization + Pulay DIIS
 SCF converges when DIIS error is below 1.0E-09
Finding J and K together
 Job number = 22, Threshold = 1.00E-14
Integral type ranges set in mkLRange.C for JobNum: 22  <1-21|1-21>
Storing 20.86% of integrals
Total number of integrals generated =         8658713
Fock build time:  0.57 s (CPU) 0.58 s (wall)
DIIS Errors:  Max 5.89E-09 RMS 5.11E-10

Current DIIS subspace size = 1
REM_GRID_RESTART_DIIS = 0

 ---------------------------------------
  Cycle       Energy         DIIS Error
 ---------------------------------------
    1    -154.9349690281      5.11E-10  00000 Done RCA. Switching to DIIS
Finding J and K together
 Job number = 22, Threshold = 1.00E-14
Integral type ranges set in mkLRange.C for JobNum: 22  <1-21|1-21>
Storing 20.86% of integrals
Reusing in-core integrals buffer for job 22
Fock build time:  0.22 s (CPU) 0.22 s (wall)
DIIS Errors:  Max 4.94E-09 RMS 2.37E-10

Current DIIS subspace size = 2
REM_GRID_RESTART_DIIS = 0

    2    -154.9349690281      2.37E-10  00000 Convergence criterion met
 ---------------------------------------
 SCF time:  CPU 0.80 s  wall 0.80 s
 SCF   energy in the final basis set = -154.9349690281
 Total energy in the final basis set = -154.9349690281
Symmetry turned off temporarily
 Analysis of SCF Wavefunction

 --------------------------------------------------------------
                    Orbital Energies (a.u.)
 --------------------------------------------------------------

 Alpha MOs
 -- Occupied --
-11.241 -11.241 -11.233 -11.233  -1.092  -1.003  -0.823  -0.752
 -0.642  -0.634  -0.557  -0.541  -0.488  -0.443  -0.325
 -- Virtual --
  0.124   0.203   0.207   0.216   0.243   0.269   0.278   0.294
  0.429   0.443   0.550   0.577   0.598   0.672   0.703   0.710
  0.731   0.770   0.796   0.810   0.831   0.869   0.886   0.930
  0.959   0.989   1.012   1.100   1.120   1.177   1.189   1.222
  1.245   1.245   1.291   1.323   1.359   1.450   1.599   1.703
  1.711   1.738   1.751   1.751   1.844   1.884   1.893   1.916
  1.924   1.941   2.005   2.043   2.086   2.158   2.181   2.235
  2.253   2.425   2.436   2.454   2.491   2.557   2.577   2.614
  2.685   2.833   2.834   3.053   3.088   3.383   3.545
 --------------------------------------------------------------

          Ground-State Mulliken Net Atomic Charges

     Atom                 Charge (a.u.)
  ----------------------------------------
      1 C                    -0.018277
      2 C                    -0.089135
      3 C                    -0.089134
      4 C                    -0.018269
      5 H                     0.047920
      6 H                     0.038880
      7 H                     0.020610
      8 H                     0.020610
      9 H                     0.038878
     10 H                     0.047917
  ----------------------------------------
  Sum of atomic charges =     0.000000

 -----------------------------------------------------------------
                    Cartesian Multipole Moments
 -----------------------------------------------------------------
    Charge (ESU x 10^10)
                 0.0000
    Dipole Moment (Debye)
         X       0.0000      Y       0.0002      Z      -0.0004
       Tot       0.0004
    Quadrupole Moments (Debye-Ang)
        XX     -23.2439     XY      -0.1474     YY     -24.4108
        XZ       0.2271     YZ       2.6618     ZZ     -27.4124
    Octapole Moments (Debye-Ang^2)
       XXX      38.5155    XXY      -1.5843    XYY      13.4590
       YYY      -5.5062    XXZ      -4.8736    XYZ      -1.4813
       YYZ      -4.4523    XZZ      15.2326    YZZ      -1.0046
       ZZZ     -16.3478
    Hexadecapole Moments (Debye-Ang^3)
      XXXX    -323.2614   XXXY      50.8745   XXYY     -76.7948
      XYYY      55.8004   YYYY    -102.2710   XXXZ      31.2040
      XXYZ      -1.8962   XYYZ       7.6571   YYYZ     -14.3523
      XXZZ     -74.8382   XYZZ      18.6142   YYZZ     -25.0002
      XZZZ      34.1870   YZZZ     -19.2449   ZZZZ     -59.3634
 -----------------------------------------------------------------
 Calculating analytic gradient of the SCF energy
 Job number = 111, Threshold = 1.00E-14
Integral type ranges set in mkLRange.C for JobNum: 11  <1-21|22-22>
Total number of integrals generated =           41750
Finding J and K together
 ML is being used
 Job number = 122, Threshold = 1.00E-14
Integral type ranges set in mkLRange.C for JobNum: 22  <1-21|1-21>
Total number of integrals generated =         8131734
 Gradient of Coulomb and Exchange Energy
            1           2           3           4           5           6
    1   6.6040357  -0.2843829   0.2845535  -6.6040828   3.5817394  -0.4968150
    2  -5.1873618   3.9454420  -3.9441884   5.1873243   0.2483860  -3.1387588
    3  -2.6704953   2.2882692  -2.2904733   2.6704897   0.3412588  -1.8600334
            7           8           9          10
    1   1.5584272  -1.5583820   0.4967264  -3.5818195
    2   3.2723820  -3.2721100   3.1378092  -0.2489244
    3   1.9968388  -1.9973150   1.8616662  -0.3402057
 Gradient of SCF Energy
            1           2           3           4           5           6
    1   0.0000125  -0.0000303   0.0000407  -0.0000205   0.0000002   0.0000007
    2  -0.0000166  -0.0000287   0.0000127   0.0000153   0.0000100   0.0000101
    3   0.0000070  -0.0000152   0.0000098   0.0000270  -0.0000007  -0.0000028
            7           8           9          10
    1   0.0000081  -0.0000070   0.0000002  -0.0000046
    2   0.0000039   0.0000009  -0.0000021  -0.0000055
    3  -0.0000009  -0.0000024  -0.0000106  -0.0000112
 Max gradient component =       4.072E-05
 RMS gradient           =       1.459E-05
 Gradient time:  CPU 1.78 s  wall 1.78 s
 ------------------------------------------------------------------------------
                     drvman        : Timing summary (seconds)
 ------------------------------------------------------------------------------
     job step          cpu (% of tot)      sys (% of tot)     wall (% of tot)
 ------------------------------------------------------------------------------
 ------------------------------------------------------------------------------
   Grand Totals     0.1781E+01          0.1000E-05          0.1780E+01
 ------------------------------------------------------------------------------
=======================================================
            AB INITIO MOLECULAR DYNAMICS
=======================================================
Created directory /Users/hauser/scratch/qchem55317/AIMD
AIMD will take 200 BOMD steps on the HF potential surface
using Velocity Verlet integration
Time step = 20.00000 a.u. ( = 0.48378 fs)
Total simulation time requested = 96.755 fs
Integral threshold = 10**(-14)
SCF convergence threshold = 10**(-9)
Generating viewable xyz trajectory,
 file (in Angstroms) at AIMD/View.xyz

-- Quasiclassical MD Set-Up --------------------------------
Initial velocities selected according to energy distribution
over quantized simple harmonic oscillators.
------------------------------------------------------------

Random seed for phases of velocities: -1394425916
Random seed for vibrational distribution: -1394425916
AUtoAMU = 0.000549
Simulation temperature = 298.0 K = 2.5 kJ/mol

Normal modes read from disk:
----------------------------
Mode 1:  Freq =    170.53 cm**(-1) = 5.112e+12 Hz,   Period = 195.61 fs
Mode 2:  Freq =    317.60 cm**(-1) = 9.521e+12 Hz,   Period = 105.03 fs
Mode 3:  Freq =    547.93 cm**(-1) = 1.643e+13 Hz,   Period = 60.88 fs
Mode 4:  Freq =    578.21 cm**(-1) = 1.733e+13 Hz,   Period = 57.69 fs
Mode 5:  Freq =    844.74 cm**(-1) = 2.532e+13 Hz,   Period = 39.49 fs
Mode 6:  Freq =    952.40 cm**(-1) = 2.855e+13 Hz,   Period = 35.02 fs
Mode 7:  Freq =   1048.92 cm**(-1) = 3.145e+13 Hz,   Period = 31.80 fs
Mode 8:  Freq =   1050.01 cm**(-1) = 3.148e+13 Hz,   Period = 31.77 fs
Mode 9:  Freq =   1069.41 cm**(-1) = 3.206e+13 Hz,   Period = 31.19 fs
Mode 10:  Freq =   1099.37 cm**(-1) = 3.296e+13 Hz,   Period = 30.34 fs
Mode 11:  Freq =   1143.46 cm**(-1) = 3.428e+13 Hz,   Period = 29.17 fs
Mode 12:  Freq =   1306.72 cm**(-1) = 3.917e+13 Hz,   Period = 25.53 fs
Mode 13:  Freq =   1409.34 cm**(-1) = 4.225e+13 Hz,   Period = 23.67 fs
Mode 14:  Freq =   1409.79 cm**(-1) = 4.226e+13 Hz,   Period = 23.66 fs
Mode 15:  Freq =   1511.78 cm**(-1) = 4.532e+13 Hz,   Period = 22.06 fs
Mode 16:  Freq =   1574.36 cm**(-1) = 4.720e+13 Hz,   Period = 21.19 fs
Mode 17:  Freq =   1798.85 cm**(-1) = 5.393e+13 Hz,   Period = 18.54 fs
Mode 18:  Freq =   1882.23 cm**(-1) = 5.643e+13 Hz,   Period = 17.72 fs
Mode 19:  Freq =   3296.15 cm**(-1) = 9.882e+13 Hz,   Period = 10.12 fs
Mode 20:  Freq =   3300.22 cm**(-1) = 9.894e+13 Hz,   Period = 10.11 fs
Mode 21:  Freq =   3317.17 cm**(-1) = 9.945e+13 Hz,   Period = 10.06 fs
Mode 22:  Freq =   3320.04 cm**(-1) = 9.953e+13 Hz,   Period = 10.05 fs
Mode 23:  Freq =   3393.44 cm**(-1) = 1.017e+14 Hz,   Period = 9.83 fs
Mode 24:  Freq =   3394.34 cm**(-1) = 1.018e+14 Hz,   Period = 9.83 fs

LenExcitatonLevelFile = 0
------------------------------------------------------
  Determining vibrational distribution for  298.0 K
------------------------------------------------------

Vibrational distribution with 1 trajectories:
Mode       n    # in n    % in n    [1/cm]  [kJ/mol]
-----------------------------------------------------
   1       0         0      0.00      85.3       1.0
           1         1    100.00     255.8       3.1
   2       0         1    100.00     158.8       1.9
   3       0         1    100.00     274.0       3.3
   4       0         1    100.00     289.1       3.5
   5       0         1    100.00     422.4       5.1
   6       0         1    100.00     476.2       5.7
   7       0         1    100.00     524.5       6.3
   8       0         1    100.00     525.0       6.3
   9       0         1    100.00     534.7       6.4
  10       0         1    100.00     549.7       6.6
  11       0         1    100.00     571.7       6.8
  12       0         1    100.00     653.4       7.8
  13       0         1    100.00     704.7       8.4
  14       0         1    100.00     704.9       8.4
  15       0         1    100.00     755.9       9.0
  16       0         1    100.00     787.2       9.4
  17       0         1    100.00     899.4      10.8
  18       0         1    100.00     941.1      11.3
  19       0         1    100.00    1648.1      19.7
  20       0         1    100.00    1650.1      19.7
  21       0         1    100.00    1658.6      19.8
  22       0         1    100.00    1660.0      19.9
  23       0         1    100.00    1696.7      20.3
  24       0         1    100.00    1697.2      20.3
Please check whether the vibrational distribution is ~converged.
If it isn't, run more trajectories!

Initial velocities for trajectory #1 of 1 ...

Mode #    w [1/cm]   Nexc     Evib[1/cm]   Evib[kJ/mol]
-------------------------------------------------------
     1       170.5      1          255.8            3.1
     2       317.6      0          158.8            1.9
     3       547.9      0          274.0            3.3
     4       578.2      0          289.1            3.5
     5       844.7      0          422.4            5.1
     6       952.4      0          476.2            5.7
     7      1048.9      0          524.5            6.3
     8      1050.0      0          525.0            6.3
     9      1069.4      0          534.7            6.4
    10      1099.4      0          549.7            6.6
    11      1143.5      0          571.7            6.8
    12      1306.7      0          653.4            7.8
    13      1409.3      0          704.7            8.4
    14      1409.8      0          704.9            8.4
    15      1511.8      0          755.9            9.0
    16      1574.4      0          787.2            9.4
    17      1798.9      0          899.4           10.8
    18      1882.2      0          941.1           11.3
    19      3296.1      0         1648.1           19.7
    20      3300.2      0         1650.1           19.7
    21      3317.2      0         1658.6           19.8
    22      3320.0      0         1660.0           19.9
    23      3393.4      0         1696.7           20.3
    24      3394.3      0         1697.2           20.3

Mode   1:  T =    255.79 cm**(-1) = 1.16546e-03 Eh   Qdot =    -0.048280 a.u. = -1.05621e+05 m/s
Mode   2:  T =    158.80 cm**(-1) = 7.23552e-04 Eh   Qdot =     0.038041 a.u. =  8.32216e+04 m/s
Mode   3:  T =    273.96 cm**(-1) = 1.24827e-03 Eh   Qdot =     0.049965 a.u. =  1.09309e+05 m/s
Mode   4:  T =    289.11 cm**(-1) = 1.31726e-03 Eh   Qdot =    -0.051328 a.u. = -1.12289e+05 m/s
Mode   5:  T =    422.37 cm**(-1) = 1.92447e-03 Eh   Qdot =     0.062040 a.u. =  1.35724e+05 m/s
Mode   6:  T =    476.20 cm**(-1) = 2.16973e-03 Eh   Qdot =     0.065875 a.u. =  1.44113e+05 m/s
Mode   7:  T =    524.46 cm**(-1) = 2.38962e-03 Eh   Qdot =    -0.069132 a.u. = -1.51240e+05 m/s
Mode   8:  T =    525.01 cm**(-1) = 2.39211e-03 Eh   Qdot =     0.069168 a.u. =  1.51318e+05 m/s
Mode   9:  T =    534.70 cm**(-1) = 2.43629e-03 Eh   Qdot =    -0.069804 a.u. = -1.52709e+05 m/s
Mode  10:  T =    549.68 cm**(-1) = 2.50455e-03 Eh   Qdot =    -0.070775 a.u. = -1.54834e+05 m/s
Mode  11:  T =    571.73 cm**(-1) = 2.60499e-03 Eh   Qdot =    -0.072180 a.u. = -1.57908e+05 m/s
Mode  12:  T =    653.36 cm**(-1) = 2.97694e-03 Eh   Qdot =    -0.077161 a.u. = -1.68805e+05 m/s
Mode  13:  T =    704.67 cm**(-1) = 3.21070e-03 Eh   Qdot =     0.080134 a.u. =  1.75308e+05 m/s
Mode  14:  T =    704.89 cm**(-1) = 3.21173e-03 Eh   Qdot =    -0.080146 a.u. = -1.75336e+05 m/s
Mode  15:  T =    755.89 cm**(-1) = 3.44409e-03 Eh   Qdot =    -0.082995 a.u. = -1.81568e+05 m/s
Mode  16:  T =    787.18 cm**(-1) = 3.58665e-03 Eh   Qdot =    -0.084695 a.u. = -1.85287e+05 m/s
Mode  17:  T =    899.43 cm**(-1) = 4.09808e-03 Eh   Qdot =     0.090533 a.u. =  1.98058e+05 m/s
Mode  18:  T =    941.11 cm**(-1) = 4.28802e-03 Eh   Qdot =     0.092607 a.u. =  2.02595e+05 m/s
Mode  19:  T =   1648.07 cm**(-1) = 7.50917e-03 Eh   Qdot =    -0.122549 a.u. = -2.68100e+05 m/s
Mode  20:  T =   1650.11 cm**(-1) = 7.51845e-03 Eh   Qdot =    -0.122625 a.u. = -2.68266e+05 m/s
Mode  21:  T =   1658.59 cm**(-1) = 7.55707e-03 Eh   Qdot =     0.122940 a.u. =  2.68954e+05 m/s
Mode  22:  T =   1660.02 cm**(-1) = 7.56361e-03 Eh   Qdot =    -0.122993 a.u. = -2.69070e+05 m/s
Mode  23:  T =   1696.72 cm**(-1) = 7.73082e-03 Eh   Qdot =    -0.124345 a.u. = -2.72028e+05 m/s
Mode  24:  T =   1697.17 cm**(-1) = 7.73287e-03 Eh   Qdot =     0.124361 a.u. =  2.72064e+05 m/s
T(Normal mode) = 0.091305 a.u. =  20039.03 cm**(-1)
Nuclear velocities (a.u.):
      6.5645900751e-04      -3.9262806359e-04      -5.3112795196e-04
     -9.2196458386e-04       2.6749326973e-04       1.6923050628e-04
      5.2191546517e-04       5.2111097431e-04       4.5442697897e-04
     -2.9380467840e-04      -5.7196291026e-04      -2.0647436570e-04
     -2.2136182766e-03      -2.8014925103e-03       9.6900976811e-04
      1.2749109751e-03       2.5445872670e-03       2.9163084963e-03
     -5.1863643021e-04      -6.5034286523e-04      -2.8797167142e-03
     -1.8068441429e-03       1.8081045105e-03      -2.5442044810e-04
      1.5575342277e-04       1.1659036950e-03       1.5910689963e-03
      3.5536856102e-03       2.8673416327e-05      -9.8553518710e-04
T(Cartesian)   = 0.091305 a.u. =  20039.03 cm**(-1)
ZPE  = 0.090528 a.u. =  19868.50 cm**(-1)


-- Quasiclassical MD Kinetic Energy Monitoring -------------
Please make sure there's no significant energy drift
between the modes, i.e. drift factor should be close to 0!
------------------------------------------------------------

Drift factor = (Current E_kin)/(Initial E_kin) - 1

----------------------------------------------------------------------
Mode        DelQ  Turning pt     Kin.En.    Drift factor         Psi^2
          [a.u.]      [a.u.]      [a.u.]                           SHO
----------------------------------------------------------------------
   1         0.0        62.1    0.001165          -0.000  0.000000e+00
   2         0.0        26.3    0.000724           0.000  5.641896e-01
   3         0.0        20.0    0.001248          -0.000  5.641896e-01
   4         0.0        19.5    0.001317          -0.000  5.641896e-01
   5         0.0        16.1    0.001924          -0.000  5.641896e-01
   6         0.0        15.2    0.002170           0.000  5.641896e-01
   7         0.0        14.5    0.002390          -0.000  5.641896e-01
   8         0.0        14.5    0.002392           0.000  5.641896e-01
   9         0.0        14.3    0.002436          -0.000  5.641896e-01
  10         0.0        14.1    0.002505          -0.000  5.641896e-01
  11         0.0        13.9    0.002605          -0.000  5.641896e-01
  12         0.0        13.0    0.002977          -0.000  5.641896e-01
  13         0.0        12.5    0.003211           0.000  5.641896e-01
  14         0.0        12.5    0.003212           0.000  5.641896e-01
  15         0.0        12.0    0.003444           0.000  5.641896e-01
  16         0.0        11.8    0.003587           0.000  5.641896e-01
  17         0.0        11.0    0.004098           0.000  5.641896e-01
  18         0.0        10.8    0.004288          -0.000  5.641896e-01
  19         0.0         8.2    0.007509          -0.000  5.641896e-01
  20         0.0         8.2    0.007518          -0.000  5.641896e-01
  21         0.0         8.1    0.007557           0.000  5.641896e-01
  22         0.0         8.1    0.007564          -0.000  5.641896e-01
  23         0.0         8.0    0.007731          -0.000  5.641896e-01
  24         0.0         8.0    0.007733           0.000  5.641896e-01
----------------------------------------------------------------------
Total                           0.091305          -0.000  0.000000e+00

Initial velocities in m/s
  1      1.4361e+03     -8.5895e+02     -1.1619e+03 
  2     -2.0170e+03      5.8519e+02      3.7022e+02 
  3      1.1418e+03      1.1400e+03      9.9415e+02 
  4     -6.4275e+02     -1.2513e+03     -4.5170e+02 
  5     -4.8427e+03     -6.1288e+03      2.1199e+03 
  6      2.7891e+03      5.5668e+03      6.3800e+03 
  7     -1.1346e+03     -1.4227e+03     -6.2999e+03 
  8     -3.9528e+03      3.9556e+03     -5.5659e+02 
  9      3.4074e+02      2.5506e+03      3.4808e+03 
 10      7.7744e+03      6.2729e+01     -2.1560e+03 
----------------------------------------------------------------------------
       Nuclear coordinates (Angst) and velocities (a.u.)
----------------------------------------------------------------------------
             x        y        z            v_x         v_y        v_z
----------------------------------------------------------------------------
1      C   -2.1642   0.8789   0.5803     6.5646e-04  -3.9263e-04  -5.3113e-04
2      C   -1.2789   0.0058   0.1187    -9.2196e-04   2.6749e-04   1.6923e-04
3      C    0.1742   0.1445   0.2791     5.2192e-04   5.2111e-04   4.5443e-04
4      C    1.0596  -0.7284  -0.1829    -2.9380e-04  -5.7196e-04  -2.0647e-04
5      H   -3.2273   0.7346   0.4378    -2.2136e-03  -2.8015e-03   9.6901e-04
6      H   -1.8572   1.7694   1.1172     1.2749e-03   2.5446e-03   2.9163e-03
7      H   -1.6236  -0.8745  -0.4144    -5.1864e-04  -6.5034e-04  -2.8797e-03
8      H    0.5189   1.0248   0.8123    -1.8068e-03   1.8081e-03  -2.5442e-04
9      H    0.7526  -1.6187  -0.7201     1.5575e-04   1.1659e-03   1.5911e-03
10     H    2.1226  -0.5839  -0.0406     3.5537e-03   2.8673e-05  -9.8554e-04
----------------------------------------------------------------------------
Write nuclear velocities every 1 time steps

TIME STEP #1 (t = 0.000 a.u.)
--------------------------------------
 ----------------------------------------------------
       Standard Nuclear Orientation (Angstroms)
    I     Atom         X            Y            Z
 ----------------------------------------------------
    1      C      -2.157272     0.874765     0.574709
    2      C      -1.288648     0.008631     0.120491
    3      C       0.179744     0.150025     0.283859
    4      C       1.056451    -0.734463    -0.185085
    5      H      -3.250698     0.704900     0.448046
    6      H      -1.843737     1.796370     1.148015
    7      H      -1.629049    -0.881423    -0.444898
    8      H       0.499758     1.043916     0.809607
    9      H       0.754238    -1.606350    -0.703290
   10      H       2.160231    -0.583596    -0.051060
 ----------------------------------------------------
 Nuclear Repulsion Energy =   103.5901627501 hartrees
 There are       15 alpha and       15 beta electrons

                       Distance Matrix (Angstroms)
             C (  1)   C (  2)   C (  3)   C (  4)   H (  5)   H (  6)
   C (  2)  1.308056
   C (  3)  2.464038  1.484201
   C (  4)  3.673543  2.478921  1.330731
   H (  5)  1.113767  2.107540  3.478904  4.585210
   H (  6)  1.129753  2.135402  2.748034  4.073495  1.913323
   H (  7)  2.098288  1.108032  2.206061  2.702038  2.437932  3.123146
   H (  8)  2.672751  2.178323  1.085293  2.112334  3.783064  2.484487
   H (  9)  4.033126  2.731330  2.095081  1.058327  4.765183  4.664259
   H ( 10)  4.599917  3.503559  2.138388  1.122076  5.584575  4.809759
             H (  7)   H (  8)   H (  9)
   H (  8)  3.132496
   H (  9)  2.504466  3.062276
   H ( 10)  3.821316  2.479257  1.856945

 Applying Cartesian multipole field
    Component          Value
    ---------          -----
     (2,0,0)        1.00000E-11
     (0,2,0)        2.00000E-11
     (0,0,2)       -3.00000E-10
 Nucleus-field energy     =    -0.0000000025 hartrees
 Job number = 2, Threshold = 1.00E-14
Integral type ranges set in mkLRange.C for JobNum: 2  <1-21|1-21>
Symmetry turned off temporarily
Symmetry turned back on
 Job number = 11, Threshold = 1.00E-14
Integral type ranges set in mkLRange.C for JobNum: 11  <1-21|22-22>
 Smallest overlap matrix eigenvalue = 2.28E-03
 Multipole matrices computed through 2nd order
 Guess MOs from SCF MO coefficient file
Reading MOs from coefficient file
Reading MOs from coefficient file
SCF convergence criterion is 10**(-9)
 A restricted Hartree-Fock SCF calculation will be
 performed using Relaxed Constraint Minimization + Pulay DIIS
 SCF converges when DIIS error is below 1.0E-09
Finding J and K together
 Job number = 22, Threshold = 1.00E-14
Integral type ranges set in mkLRange.C for JobNum: 22  <1-21|1-21>
Storing 20.87% of integrals
Fock build time:  0.56 s (CPU) 0.57 s (wall)
DIIS Errors:  Max 5.42E-02 RMS 3.30E-03

Current DIIS subspace size = 1
REM_GRID_RESTART_DIIS = 0

 ---------------------------------------
  Cycle       Energy         DIIS Error
 ---------------------------------------
    1    -154.8875041900      3.30E-03  00000
Finding J and K together
 Job number = 22, Threshold = 1.00E-14
Integral type ranges set in mkLRange.C for JobNum: 22  <1-21|1-21>
Storing 20.87% of integrals
Reusing in-core integrals buffer for job 22
Fock build time:  0.22 s (CPU) 0.22 s (wall)
DIIS Errors:  Max 3.62E-03 RMS 3.36E-04

Current DIIS subspace size = 2
REM_GRID_RESTART_DIIS = 0

    2    -154.9300839092      3.36E-04  00000
Finding J and K together
 Job number = 22, Threshold = 1.00E-14
Integral type ranges set in mkLRange.C for JobNum: 22  <1-21|1-21>
Storing 20.87% of integrals
Reusing in-core integrals buffer for job 22
Fock build time:  0.21 s (CPU) 0.21 s (wall)
DIIS Errors:  Max 1.44E-03 RMS 1.12E-04

Current DIIS subspace size = 3
REM_GRID_RESTART_DIIS = 0

    3    -154.9302438226      1.12E-04  00000
Finding J and K together
 Job number = 22, Threshold = 1.00E-14
Integral type ranges set in mkLRange.C for JobNum: 22  <1-21|1-21>
Storing 20.87% of integrals
Reusing in-core integrals buffer for job 22
Fock build time:  0.22 s (CPU) 0.22 s (wall)
DIIS Errors:  Max 6.51E-04 RMS 5.06E-05

Current DIIS subspace size = 4
REM_GRID_RESTART_DIIS = 0

    4    -154.9302578164      5.06E-05  00000
Finding J and K together
 Job number = 22, Threshold = 1.00E-14
Integral type ranges set in mkLRange.C for JobNum: 22  <1-21|1-21>
Storing 20.87% of integrals
Reusing in-core integrals buffer for job 22
Fock build time:  0.22 s (CPU) 0.22 s (wall)
DIIS Errors:  Max 3.33E-04 RMS 2.73E-05

Current DIIS subspace size = 5
REM_GRID_RESTART_DIIS = 0

    5    -154.9302603483      2.73E-05  00000
Finding J and K together
 Job number = 22, Threshold = 1.00E-14
Integral type ranges set in mkLRange.C for JobNum: 22  <1-21|1-21>
Storing 20.87% of integrals
Reusing in-core integrals buffer for job 22
Fock build time:  0.22 s (CPU) 0.22 s (wall)
DIIS Errors:  Max 1.77E-04 RMS 1.51E-05

Current DIIS subspace size = 6
REM_GRID_RESTART_DIIS = 0

    6    -154.9302609506      1.51E-05  00000
Finding J and K together
 Job number = 22, Threshold = 1.00E-14
Integral type ranges set in mkLRange.C for JobNum: 22  <1-21|1-21>
Storing 20.87% of integrals
Reusing in-core integrals buffer for job 22
Fock build time:  0.21 s (CPU) 0.21 s (wall)
[...]
    1   7.0069316   0.6979217  -0.0852128  -6.7372992   3.3418303  -0.5854584
    2  -5.7405607   2.5629471  -2.3537198   5.2620524   1.5599633  -3.4868129
    3  -3.3439372   1.7866358  -1.5058863   2.5026714   0.1258963  -0.9874860
            7           8           9          10
    1   0.8604136  -1.0754495   0.0129896  -3.4366669
    2   3.1162656  -3.0914277   2.7263571  -0.5550645
    3   2.3333838  -2.3148345   2.2962057  -0.8926490
 Gradient of SCF Energy
            1           2           3           4           5           6
    1   0.0351427  -0.0588558  -0.0265751   0.0503135   0.0122173   0.0215721
    2  -0.0717764   0.0970672   0.0021080   0.0185266  -0.0255077   0.0455553
    3  -0.0276343   0.0614127   0.0103932   0.0302383  -0.0020688   0.0022505
            7           8           9          10
    1   0.0132016  -0.0203804  -0.0049202  -0.0217157
    2  -0.0122816  -0.0146452  -0.0401410   0.0010948
    3  -0.0191307  -0.0148584  -0.0383212  -0.0022812
 Max gradient component =       9.707E-02
 RMS gradient           =       3.507E-02
 Gradient time:  CPU 1.74 s  wall 1.74 s
 ------------------------------------------------------------------------------
                     drvman        : Timing summary (seconds)
 ------------------------------------------------------------------------------
     job step          cpu (% of tot)      sys (% of tot)     wall (% of tot)
 ------------------------------------------------------------------------------
 ------------------------------------------------------------------------------
   Grand Totals     0.1736E+01          0.0000E+00          0.1736E+01
 ------------------------------------------------------------------------------

-- Quasiclassical MD Kinetic Energy Monitoring -------------
Please make sure there's no significant energy drift
between the modes, i.e. drift factor should be close to 0!
------------------------------------------------------------

Drift factor = (Current E_kin)/(Initial E_kin) - 1

----------------------------------------------------------------------
Mode        DelQ  Turning pt     Kin.En.    Drift factor         Psi^2
          [a.u.]      [a.u.]      [a.u.]                           SHO
----------------------------------------------------------------------
   1         6.5        62.1    0.002080           0.785  3.606855e-02
   2        -8.2        26.3    0.000388          -0.464  5.113752e-01
   3       -23.6        20.0    0.000039          -0.969  1.403024e-01
   4        25.5        19.5    0.000292          -0.779  1.014537e-01
   5        10.4        16.1    0.001350          -0.299  3.734314e-01
   6       -20.1        15.2    0.000661          -0.695  9.771658e-02
   7         2.6        14.5    0.000889          -0.628  5.465604e-01
   8        -5.4        14.5    0.000277          -0.884  4.911323e-01
   9        -1.5        14.3    0.003532           0.450  5.579135e-01
  10        -7.7        14.1    0.001913          -0.236  4.199368e-01
  11       -12.9        13.9    0.000184          -0.929  2.363929e-01
  12        10.0        13.0    0.000035          -0.988  3.099666e-01
  13         2.6        12.5    0.000398          -0.876  5.404980e-01
  14        -1.3        12.5    0.006275           0.954  5.581807e-01
  15       -13.2        12.0    0.001599          -0.536  1.695586e-01
  16       -10.3        11.8    0.000401          -0.888  2.622411e-01
  17         6.1        11.0    0.005055           0.234  4.157331e-01
  18         5.0        10.8    0.000175          -0.959  4.565085e-01
  19        -2.3         8.2    0.011142           0.484  5.194786e-01
  20         1.0         8.2    0.006605          -0.122  5.550534e-01
  21         2.0         8.1    0.000025          -0.997  5.296087e-01
  22        -3.5         8.1    0.000000          -1.000  4.701738e-01
  23         7.5         8.0    0.013210           0.709  2.387093e-01
  24        -1.4         8.0    0.000286          -0.963  5.473295e-01
----------------------------------------------------------------------
Total                           0.056809          -0.378  1.054398e-12

Time for this dynamics step: 5.5 s (CPU) 5.5 s (wall)

TIME STEP #200 (t = 3980.000 a.u.)
--------------------------------------
 ----------------------------------------------------
       Standard Nuclear Orientation (Angstroms)
    I     Atom         X            Y            Z
 ----------------------------------------------------
    1      C      -2.161509     0.880646     0.580004
    2      C      -1.296558     0.076000     0.133778
    3      C       0.135863     0.094918     0.278479
    4      C       1.103239    -0.741755    -0.186703
    5      H      -3.161903     0.452193     0.513637
    6      H      -1.854881     1.976847     0.972995
    7      H      -1.567323    -0.798633    -0.463530
    8      H       0.392213     0.898109     0.902811
    9      H       0.916795    -1.641776    -0.958465
   10      H       2.075856    -0.542124     0.101036
 ----------------------------------------------------
 Nuclear Repulsion Energy =   104.1129908573 hartrees
 There are       15 alpha and       15 beta electrons

                       Distance Matrix (Angstroms)
             C (  1)   C (  2)   C (  3)   C (  4)   H (  5)   H (  6)
   C (  2)  1.262819
   C (  3)  2.446672  1.439835
   C (  4)  3.725400  2.555476  1.360968
   H (  5)  1.090305  1.940445  3.325388  4.484131
   H (  6)  1.204209  2.151564  2.826140  4.181647  2.060070
   H (  7)  2.064461  1.093194  2.061517  2.685473  2.249913  3.138405
   H (  8)  2.574103  2.029587  1.049104  2.093263  3.603060  2.493598
   H (  9)  4.266785  3.007106  2.270682  1.200173  4.815348  4.950471
   H ( 10)  4.495436  3.428749  2.049605  1.033745  5.347244  4.749338
             H (  7)   H (  8)   H (  9)
   H (  8)  2.930119
   H (  9)  2.669587  3.192264
   H ( 10)  3.695575  2.356218  1.917081

 Applying Cartesian multipole field
    Component          Value
    ---------          -----
     (2,0,0)        1.00000E-11
     (0,2,0)        2.00000E-11
     (0,0,2)       -3.00000E-10
 Nucleus-field energy     =    -0.0000000028 hartrees
 Job number = 2, Threshold = 1.00E-14
Integral type ranges set in mkLRange.C for JobNum: 2  <1-21|1-21>
Symmetry turned off temporarily
Symmetry turned back on
 Job number = 11, Threshold = 1.00E-14
Integral type ranges set in mkLRange.C for JobNum: 11  <1-21|22-22>
 Smallest overlap matrix eigenvalue = 1.79E-03
 Multipole matrices computed through 2nd order
 Guess MOs from SCF MO coefficient file
Reading MOs from coefficient file
Reading MOs from coefficient file
SCF convergence criterion is 10**(-9)
 A restricted Hartree-Fock SCF calculation will be
 performed using Relaxed Constraint Minimization + Pulay DIIS
 SCF converges when DIIS error is below 1.0E-09
Finding J and K together
 Job number = 22, Threshold = 1.00E-14
Integral type ranges set in mkLRange.C for JobNum: 22  <1-21|1-21>
Storing 20.87% of integrals
Fock build time:  0.55 s (CPU) 0.56 s (wall)
DIIS Errors:  Max 4.23E-02 RMS 2.27E-03

Current DIIS subspace size = 1
REM_GRID_RESTART_DIIS = 0

 ---------------------------------------
  Cycle       Energy         DIIS Error
 ---------------------------------------
    1    -154.8843628126      2.27E-03  00000
Finding J and K together
 Job number = 22, Threshold = 1.00E-14
Integral type ranges set in mkLRange.C for JobNum: 22  <1-21|1-21>
Storing 20.87% of integrals
Reusing in-core integrals buffer for job 22
Fock build time:  0.21 s (CPU) 0.21 s (wall)
DIIS Errors:  Max 3.44E-03 RMS 3.32E-04

Current DIIS subspace size = 2
REM_GRID_RESTART_DIIS = 0

    2    -154.8895025102      3.32E-04  00000
Finding J and K together
 Job number = 22, Threshold = 1.00E-14
Integral type ranges set in mkLRange.C for JobNum: 22  <1-21|1-21>
Storing 20.87% of integrals
Reusing in-core integrals buffer for job 22
Fock build time:  0.22 s (CPU) 0.22 s (wall)
DIIS Errors:  Max 1.79E-03 RMS 1.62E-04

Current DIIS subspace size = 3
REM_GRID_RESTART_DIIS = 0

    3    -154.8896221442      1.62E-04  00000
Finding J and K together
 Job number = 22, Threshold = 1.00E-14
Integral type ranges set in mkLRange.C for JobNum: 22  <1-21|1-21>
Storing 20.87% of integrals
Reusing in-core integrals buffer for job 22
Fock build time:  0.21 s (CPU) 0.21 s (wall)
DIIS Errors:  Max 1.06E-03 RMS 8.66E-05

Current DIIS subspace size = 4
REM_GRID_RESTART_DIIS = 0

    4    -154.8896388888      8.66E-05  00000
Finding J and K together
 Job number = 22, Threshold = 1.00E-14
Integral type ranges set in mkLRange.C for JobNum: 22  <1-21|1-21>
Storing 20.87% of integrals
Reusing in-core integrals buffer for job 22
Fock build time:  0.21 s (CPU) 0.21 s (wall)
DIIS Errors:  Max 3.75E-04 RMS 3.64E-05

Current DIIS subspace size = 5
REM_GRID_RESTART_DIIS = 0

    5    -154.8896437126      3.64E-05  00000
Finding J and K together
 Job number = 22, Threshold = 1.00E-14
Integral type ranges set in mkLRange.C for JobNum: 22  <1-21|1-21>
Storing 20.87% of integrals
Reusing in-core integrals buffer for job 22
Fock build time:  0.21 s (CPU) 0.21 s (wall)
DIIS Errors:  Max 2.48E-04 RMS 2.19E-05

Current DIIS subspace size = 6
REM_GRID_RESTART_DIIS = 0

    6    -154.8896457871      2.19E-05  00000
Finding J and K together
 Job number = 22, Threshold = 1.00E-14
Integral type ranges set in mkLRange.C for JobNum: 22  <1-21|1-21>
Storing 20.87% of integrals
Reusing in-core integrals buffer for job 22
Fock build time:  0.21 s (CPU) 0.21 s (wall)
DIIS Errors:  Max 6.95E-05 RMS 7.67E-06

Current DIIS subspace size = 7
REM_GRID_RESTART_DIIS = 0

    7    -154.8896460831      7.67E-06  00000
Finding J and K together
 Job number = 22, Threshold = 1.00E-14
Integral type ranges set in mkLRange.C for JobNum: 22  <1-21|1-21>
Storing 20.87% of integrals
Reusing in-core integrals buffer for job 22
Fock build time:  0.21 s (CPU) 0.21 s (wall)
DIIS Errors:  Max 4.99E-05 RMS 4.80E-06

Current DIIS subspace size = 8
REM_GRID_RESTART_DIIS = 0

    8    -154.8896462316      4.80E-06  00000
Finding J and K together
 Job number = 22, Threshold = 1.00E-14
Integral type ranges set in mkLRange.C for JobNum: 22  <1-21|1-21>
Storing 20.87% of integrals
Reusing in-core integrals buffer for job 22
Fock build time:  0.21 s (CPU) 0.21 s (wall)
DIIS Errors:  Max 1.88E-05 RMS 1.72E-06

Current DIIS subspace size = 9
REM_GRID_RESTART_DIIS = 0

    9    -154.8896462459      1.72E-06  00000
Finding J and K together
 Job number = 22, Threshold = 1.00E-14
Integral type ranges set in mkLRange.C for JobNum: 22  <1-21|1-21>
Storing 20.87% of integrals
Reusing in-core integrals buffer for job 22
Fock build time:  0.21 s (CPU) 0.21 s (wall)
DIIS Errors:  Max 1.17E-05 RMS 1.10E-06

Current DIIS subspace size = 10
REM_GRID_RESTART_DIIS = 0

   10    -154.8896462534      1.10E-06  00000 Done RCA. Switching to DIIS
Finding J and K together
 Job number = 22, Threshold = 1.00E-14
Integral type ranges set in mkLRange.C for JobNum: 22  <1-21|1-21>
Storing 20.87% of integrals
Reusing in-core integrals buffer for job 22
Fock build time:  0.21 s (CPU) 0.21 s (wall)
DIIS Errors:  Max 8.04E-06 RMS 7.33E-07

Current DIIS subspace size = 11
REM_GRID_RESTART_DIIS = 0

   11    -154.8896462542      7.33E-07  00000
Finding J and K together
 Job number = 22, Threshold = 1.00E-14
Integral type ranges set in mkLRange.C for JobNum: 22  <1-21|1-21>
Storing 20.87% of integrals
Reusing in-core integrals buffer for job 22
Fock build time:  0.21 s (CPU) 0.21 s (wall)
DIIS Errors:  Max 3.68E-08 RMS 4.16E-09
 Singularity in Pulay DIIS matrix

Current DIIS subspace size = 12
REM_GRID_RESTART_DIIS = 0

NextCycle: DoReset = 1
   12    -154.8896462547      4.16E-09  00000
Finding J and K together
 Job number = 22, Threshold = 1.00E-14
Integral type ranges set in mkLRange.C for JobNum: 22  <1-21|1-21>
Storing 20.87% of integrals
Reusing in-core integrals buffer for job 22
Fock build time:  0.21 s (CPU) 0.21 s (wall)
DIIS Errors:  Max 2.35E-08 RMS 1.78E-09

Current DIIS subspace size = 2
REM_GRID_RESTART_DIIS = 0

   13    -154.8896462547      1.78E-09  00000
Finding J and K together
 Job number = 22, Threshold = 1.00E-14
Integral type ranges set in mkLRange.C for JobNum: 22  <1-21|1-21>
Storing 20.87% of integrals
Reusing in-core integrals buffer for job 22
Fock build time:  0.21 s (CPU) 0.21 s (wall)
DIIS Errors:  Max 1.15E-08 RMS 1.21E-09

Current DIIS subspace size = 3
REM_GRID_RESTART_DIIS = 0

   14    -154.8896462547      1.21E-09  00000
Finding J and K together
 Job number = 22, Threshold = 1.00E-14
Integral type ranges set in mkLRange.C for JobNum: 22  <1-21|1-21>
Storing 20.87% of integrals
Reusing in-core integrals buffer for job 22
Fock build time:  0.21 s (CPU) 0.21 s (wall)
DIIS Errors:  Max 3.04E-09 RMS 1.91E-10
 Singularity in Pulay DIIS matrix

Current DIIS subspace size = 4
REM_GRID_RESTART_DIIS = 0

NextCycle: DoReset = 1
   15    -154.8896462547      1.91E-10  00000 Convergence criterion met
 ---------------------------------------
 SCF time:  CPU 3.61 s  wall 3.61 s
 SCF   energy in the final basis set = -154.8896462547
 Total energy in the final basis set = -154.8896462547
 Calculating analytic gradient of the SCF energy
 Job number = 111, Threshold = 1.00E-14
Integral type ranges set in mkLRange.C for JobNum: 11  <1-21|22-22>
Finding J and K together
 ML is being used
 Job number = 122, Threshold = 1.00E-14
Integral type ranges set in mkLRange.C for JobNum: 22  <1-21|1-21>
 Gradient of Coulomb and Exchange Energy
            1           2           3           4           5           6
    1   6.9446978   0.7026697  -0.2792513  -6.7320596   3.3344009  -0.5283890
    2  -5.7990247   2.5824097  -2.3594550   5.2396052   1.5800501  -3.4178066
    3  -3.1928335   1.6034110  -1.3874490   2.4920375   0.0995973  -1.0138629
            7           8           9          10
    1   0.9387976  -0.9770872   0.0291710  -3.4329498
    2   3.1080192  -3.0850269   2.6873899  -0.5361608
    3   2.3824981  -2.3684073   2.2853853  -0.9003765
 Gradient of SCF Energy
            1           2           3           4           5           6
    1   0.0487029  -0.0698872  -0.0337316   0.0799747   0.0068135   0.0246724
    2  -0.0947120   0.0922081   0.0179379   0.0192517  -0.0284276   0.0619379
    3  -0.0415766   0.0612753   0.0181372   0.0363965  -0.0020164   0.0098804
            7           8           9          10
    1   0.0155524  -0.0246975  -0.0062077  -0.0411919
    2   0.0016252  -0.0206288  -0.0463678  -0.0028245
    3  -0.0111197  -0.0192318  -0.0438308  -0.0079141
 Max gradient component =       9.471E-02
 RMS gradient           =       4.209E-02
 Gradient time:  CPU 1.73 s  wall 1.73 s
 ------------------------------------------------------------------------------
                     drvman        : Timing summary (seconds)
 ------------------------------------------------------------------------------
     job step          cpu (% of tot)      sys (% of tot)     wall (% of tot)
 ------------------------------------------------------------------------------
 ------------------------------------------------------------------------------
   Grand Totals     0.1735E+01          0.0000E+00          0.1734E+01
 ------------------------------------------------------------------------------

-- Quasiclassical MD Kinetic Energy Monitoring -------------
Please make sure there's no significant energy drift
between the modes, i.e. drift factor should be close to 0!
------------------------------------------------------------

Drift factor = (Current E_kin)/(Initial E_kin) - 1

----------------------------------------------------------------------
Mode        DelQ  Turning pt     Kin.En.    Drift factor         Psi^2
          [a.u.]      [a.u.]      [a.u.]                           SHO
----------------------------------------------------------------------
   1         7.8        62.1    0.001970           0.690  5.081805e-02
   2        -7.7        26.3    0.000404          -0.441  5.180665e-01
   3       -23.8        20.0    0.000017          -0.987  1.378967e-01
   4        25.9        19.5    0.000171          -0.870  9.572640e-02
   5         9.3        16.1    0.001565          -0.187  4.050596e-01
   6       -20.7        15.2    0.000367          -0.831  8.727086e-02
   7         1.7        14.5    0.000901          -0.623  5.562023e-01
   8        -4.8        14.5    0.000462          -0.807  5.041683e-01
   9        -3.2        14.3    0.003410           0.400  5.368878e-01
  10        -8.9        14.1    0.001661          -0.337  3.802153e-01
  11       -13.2        13.9    0.000039          -0.985  2.274300e-01
  12        10.1        13.0    0.000002          -0.999  3.062368e-01
  13         3.1        12.5    0.000322          -0.900  5.299822e-01
  14        -3.5        12.5    0.006068           0.889  5.210086e-01
  15       -14.2        12.0    0.000872          -0.747  1.406476e-01
  16        -9.7        11.8    0.000708          -0.802  2.885369e-01
  17         8.0        11.0    0.004032          -0.016  3.330141e-01
  18         4.5        10.8    0.000392          -0.909  4.740958e-01
  19        -5.2         8.2    0.008255           0.099  3.783290e-01
  20        -1.3         8.2    0.006186          -0.177  5.507709e-01
  21         1.8         8.1    0.000161          -0.979  5.379628e-01
  22        -3.3         8.1    0.000093          -0.988  4.766121e-01
  23        10.4         8.0    0.008376           0.084  1.049300e-01
  24        -1.8         8.0    0.000072          -0.991  5.370545e-01
----------------------------------------------------------------------
Total                           0.046506          -0.491  2.608844e-13

Time for this dynamics step: 5.4 s (CPU) 5.4 s (wall)

=============== TIME STEPS COMPLETED ==================

Step-to-Step energy fluctuations, |E(n) - E(n-1)|
Mean: 2.458e-06   Max: 5.257e-04   RMS: 1.676e-04
Overall energy fluctuations, |E(n) - E(0)|
Mean: 6.391e-04   Max: 1.308e-03   RMS: 2.553e-04   RMS(dE)/RMS(dV): 2.056e-02
Kinetic energy fluctuations, |T(n) - V(0)|
Mean: -4.585e-02   Max: 7.391e-02   RMS: 1.219e-02
Potential energy fluctuations, |V(n) - V(0)|
Mean: 4.649e-02   Max: 7.522e-02   RMS: 1.242e-02
 JobOver = TRUE
Archival summary:
1\1\Andreass-MacBook-Air.local\JobtypUnspecified\HF\BasisUnspecified\46\SunMar921:53:192014SunMar921:53:192014\0\\#,JobtypUnspecified,HF,BasisUnspecified,\\0,1\C\H,1,1.09319\C,1,1.26282,2,122.223\H,3,1.09031,1,110.889,2,-14.548,0\H,3,1.20421,1,121.396,2,163.37,0\C,1,1.43984,2,108.17,3,179.983,0\H,6,1.0491,1,108.238,2,176.395,0\C,6,1.36097,1,131.66,2,-0.333151,0\H,8,1.03375,6,117.059,1,176.599,0\H,8,1.20017,6,124.777,1,-7.66216,0\\HF=-154.889646\\@

 Total job time:  1285.10s(wall), 1285.00s(cpu) 
 Sun Mar  9 21:53:19 2014

======= MOLDEN-FORMATTED INPUT FILE FOLLOWS =======
[Molden Format]
[Atoms] (Angs)
  C      1    6     -2.16150899      0.88064586      0.58000368
  C      2    6     -1.29655820      0.07599957      0.13377847
  C      3    6      0.13586279      0.09491839      0.27847943
  C      4    6      1.10323893     -0.74175527     -0.18670290
  H      5    1     -3.16190330      0.45219305      0.51363709
  H      6    1     -1.85488064      1.97684704      0.97299491
  H      7    1     -1.56732256     -0.79863325     -0.46353015
  H      8    1      0.39221295      0.89810874      0.90281071
  H      9    1      0.91679535     -1.64177639     -0.95846503
  H     10    1      2.07585551     -0.54212384      0.10103577

======= END OF MOLDEN-FORMATTED INPUT FILE =======


        *************************************************************
        *                                                           *
        *  Thank you very much for using Q-Chem.  Have a nice day.  *
        *                                                           *
        *************************************************************


*** MISSION COMPLETED -- STARFLEET OUT ***

