mFile = /Applications/qchem/bin/mpi/machines
                  Welcome to Q-Chem
     A Quantum Leap Into The Future Of Chemistry

 Y. Shao, L. Fusti-Molnar, Y. Jung, J. Kussmann, C. Ochsenfeld,
 S. T. Brown, A. T. B. Gilbert, L. V. Slipchenko,S. V. Levchenko,
 D. P. O'Neill, R. A. DiStasio Jr., R. C. Lochan, T. Wang,
 G. J. O. Beran, N. A. Besley, J. M. Herbert, C. Y. Lin,
 T. Van Voorhis, S. H. Chien, A. Sodt, R. P. Steele, 
 V. A. Rassolov, P. E. Maslen, P. P. Korambath, R. D. Adamson,
 B. Austin, J. Baker, E. F. C. Byrd, H. Dachsel, R. J. Doerksen,
 A. Dreuw, B. D. Dunietz, A. D. Dutoi, T. R. Furlani,
 S. R. Gwaltney, A. Heyden, S. Hirata, C.-P. Hsu, G. Kedziora,
 R. Z. Khaliullin, P. Klunzinger, A. M. Lee, M. S. Lee, W. Liang,
 I. Lotan, N. Nair, B. Peters, E. I. Proynov, P. A. Pieniazek, 
 Y. M. Rhee, J. Ritchie, E. Rosta, C. D. Sherrill, 
 A. C. Simmonett, J. E. Subotnik, H. L. Woodcock III,
 W. Zhang, A. T. Bell, A. K. Chakraborty, D. M. Chipman,
 F. J. Keil, A. Warshel, W. J. Hehre, H. F. Schaefer III,
 J. Kong, A. I. Krylov, P. M. W. Gill, M. Head-Gordon,

 Additional authors for Version 3.1: 
 Z. Gan, Y. Zhao, N. E. Schultz, D. Truhlar, E. Epifanovsky and M. Oana.

 Additional authors for Version 3.2: 
 R. Baer, B. R. Brooks, D. Casanova, J.-D. Chai, C.-L. Cheng, 
 C. Cramer, D. Crittenden, A. Ghysels, G. Hawkins, E. G. Hohenstein, 
 C. Kelley, W. Kurlancheek, D. Liotard, E. Livshits, P. Manohar, 
 A. Marenich, D. Neuhauser, R. Olson, M. A. Rohrdanz, K. S. Thanthiriwatte, 
 A. J. W. Thom, V. Vanovschi, C. F. Williams, Q. Wu and Z.-Q. You. 

 Additional authors for Version 4.0: 
 A. Aspuru-Guzik, C. Chang, R. G. Edgar, E. Sundstrom, J. Parkhill, K. Lawler,
 M. Gordon, M. Schmidt, N. Shenvi, D. Lambrecht, M. Goldey, R. Olivares-Amaya,
 Y. Bernard, L. Vogt, M. Watson, J. Liu, S. Yeganeh, B. Kaduk, O. Vydrov, X. Xu, 
 I. Kaliman, K. Khistyaev, N. Russ, I.Y. Zhang, W.A. Goddard III, F. Liu, R. King ,
 A. Landau, M. Wormit, A. Dreuw, M. Diedenhofen, A. Klamt, A.W. Lange, D. Ghosh,
 D. Kosenkov, T. Kus, A. Landau, D. Zuev, J. Deng, S.P. Mao, Y.C. Su, D. Small,
 L. D. Jacobson
 
 Q-Chem, Version 4.0.1, Q-Chem, Inc., Pittsburgh, PA (2007).


 MAC (Intel) OSX Version 4.0.1.0 

 Q-chem begins on Fri Mar  7 19:01:54 2014  

Andreass-MacBook-Air.local
Host: 0
 Using version located at /Users/hauser/Scripts//qchem

Applying user defined connections for MM calculations

theFileMan(): MAXOPENFILES=206 MAX_SUB_FILE_NUM=16
Maximum size of a physical file is 2.0 GB, maximum size of a tmp-file is 32.0 GB

 opened zmat2 in MoleculeInput::write (get connectivity info)

Total Memory Limit in MB = 2000
Mega-Array Size in MB = 62
Finally everything over in PARseQInput

--------------------------------------------------------------
User input:
--------------------------------------------------------------
$rem
          exchange                pbe0
          basis                   6-31G*
          qm_mm_interface         oniom
          force_field             oplsaa
          user_connect            true
          jobtype                 opt
          molden_format           true
$end

$qm_atoms
4 5 6
$end

$molecule
0 1
O  -0.790909    1.149780    0.907453  186  2  3  0  0
H  -1.628044    1.245320    1.376372  187  1  0  0  0
H  -0.669346    1.913705    0.331002  187  1  0  0  0
O   1.178001   -0.686227    0.841306  186  5  6  0  0
H   0.870001   -1.337091    1.468215  187  4  0  0  0
H   0.472696   -0.008397    0.851892  187  4  0  0  0
$end


--------------------------------------------------------------
 ----------------------------------------------------
       Standard Nuclear Orientation (Angstroms)
    I     Atom         X            Y            Z
 ----------------------------------------------------
    1      O      -0.790909     1.149780     0.907453
    2      H      -1.628044     1.245320     1.376372
    3      H      -0.669346     1.913705     0.331002
    4      O       1.178001    -0.686227     0.841306
    5      H       0.870001    -1.337091     1.468215
    6      H       0.472696    -0.008397     0.851892
 ----------------------------------------------------
 Nuclear Repulsion Energy =     0.0000000000 hartrees
 There are       10 alpha and       10 beta electrons

Total QAlloc Memory Limit   2000 MB
Mega-Array Size        61 MB
MEM_STATIC part        62 MB

finished with qalloc call
   **** Step 1: MM calculation on the entire system **** 
 OPLSAA force field loaded.
 getting molecule information
 Reading atomic types. 
Determining angles, torsions, etc. from user defined input
Finding angles...
Finding torsions...
Finding improper torsions...
Wrote 4 MM bonds to file 840
 Time req'd to get MM system information: 0.0 s (CPU) 0.0 s (wall)

 ------ MM Energies ------
   Ebond:             0.294714206591
   Eangle:            0.197804842024
   EUreyBrad:         0.112495832231
   Eimptors:          0.000000000000
   Etorsion:          0.000000000000
   Evdw:              2.441259008685
   Ecoulomb:         -9.165642881537
   Etot:             -6.119368992007 Kcal/mol (     -0.009751835271 hartree)
 -------------------------
 Time req'd to calc MM energy: 0.0 s (CPU) 0.0 s (wall)
 Call to compute MM gradient 
 OPLSAA force field loaded.
 getting molecule information
 Reading atomic types. 
Wrote 0 MM bonds to file 840
 Time req'd to get MM system information: 0.0 s (CPU) 0.0 s (wall)
 Time req'd to calc MM gradient: 0.0 s (CPU) 0.0 s (wall)
   **** Step 2: MM calculation on the model system **** 
 In set_model_system 
 set_model_system n_atoms = 6
 1 Reading atomic types. 
 n_atoms_model: 3
 n_qm_bonds = 2
 ----------------------------------------------------
       Standard Nuclear Orientation (Angstroms)
    I     Atom         X            Y            Z
 ----------------------------------------------------
    1      O       1.178001    -0.686227     0.841306
    2      H       0.870001    -1.337091     1.468215
    3      H       0.472696    -0.008397     0.851892
 ----------------------------------------------------
 Nuclear Repulsion Energy =     9.1102933083 hartrees
 There are        5 alpha and        5 beta electrons
 OPLSAA force field loaded.
 getting molecule information
 Reading atomic types. 
Wrote 0 MM bonds to file 848
Finding angles...
Finding torsions...
Finding improper torsions...
 Time req'd to get MM system information: 0.0 s (CPU) 0.0 s (wall)

 ------ MM Energies ------
   Ebond:             0.238450432939
   Eangle:            0.011787108790
   EUreyBrad:         0.000525816580
   Eimptors:          0.000000000000
   Etorsion:          0.000000000000
   Evdw:              0.000000000000
   Ecoulomb:          0.000000000000
   Etot:              0.250763358309 Kcal/mol (      0.000399616850 hartree)
 -------------------------
 Eold:   -0.0097518 mm_energy:    0.0003996 Enew:   -0.0101515
 Time req'd to calc MM energy: 0.0 s (CPU) 0.0 s (wall)
 Call to compute MM gradient 
 OPLSAA force field loaded.
 getting molecule information
 Reading atomic types. 
Wrote 0 MM bonds to file 848
Finding angles...
Finding torsions...
Finding improper torsions...
 Time req'd to get MM system information: 0.0 s (CPU) 0.0 s (wall)
 Time req'd to calc MM gradient: 0.0 s (CPU) 0.0 s (wall)
   **** Step 3: QM calculation on the model system **** 
 Requested basis set is 6-31G(d)
 There are 8 shells and 19 basis functions
 Job number = 2, Threshold = 1.00E-11
Integral type ranges set in mkLRange.C for JobNum: 2  <1-21|1-21>
Symmetry turned off temporarily
 Using the largest function pair in Schwarz integrals
Total number of integrals generated =            3571
Symmetry turned back on
 A cutoff of  1.0D-11 yielded     36 shell pairs
 There are       217 function pairs
 Job number = 11, Threshold = 1.00E-11
Integral type ranges set in mkLRange.C for JobNum: 11  <1-21|22-22>
Total number of integrals generated =             651
 Smallest overlap matrix eigenvalue = 2.26E-02
 Multipole matrices computed through 2nd order

  Scale SEOQF with 1.000000e+00/1.000000e+00/1.000000e+00

 Standard Electronic Orientation quadrupole field applied
 Nucleus-field energy     =    -0.0000000009 hartrees
 Guess from superposition of atomic densities
 Warning:  Energy on first SCF cycle will be non-variational
scfman initvdwdat 
 A restricted hybrid HF-DFT SCF calculation will be
 performed using Pulay DIIS extrapolation
 Exchange:     0.2500 Hartree-Fock + 0.7500 PBE
 Correlation:  1.0000 PBE
 Using SG-1 standard quadrature grid
 SCF converges when DIIS error is below 1.0E-08
Finding J and K together
 Job number = 22, Threshold = 1.00E-11
Integral type ranges set in mkLRange.C for JobNum: 22  <1-21|1-21>
Approximate symmetry reduction factor = 1.000000
Storing 7686.90% of integrals
Total number of integrals generated =           25330
Target Grid is being used
 CPU 0.00 s  wall 0.00 s
NTotSigB2 = 5267
 Inaccurate integrated density:
   Number of electrons =    10
   Numerical integral  =     2.648578514791
   Relative error      =   -73.5142148521 %
Total Number of Grid Points = 8482
 CPU 0.04 s  wall 0.05 s

 Total DFTman time = 0.04 CPUs 0.05 Wall
Fock build time:  0.05 s (CPU) 0.09 s (wall)
DIIS Errors:  Max 1.03E+00 RMS 1.86E-01

Current DIIS subspace size = 1
REM_GRID_RESTART_DIIS = 0

 ---------------------------------------
  Cycle       Energy         DIIS Error
 ---------------------------------------
    1     -69.9122839584      1.86E-01  00000
Finding J and K together
 Job number = 22, Threshold = 1.00E-11
Integral type ranges set in mkLRange.C for JobNum: 22  <1-21|1-21>
Approximate symmetry reduction factor = 1.000000
Storing 7686.90% of integrals
Reusing in-core integrals buffer for job 22
Target Grid is being used
 CPU 0.00 s  wall 0.00 s
NTotSigB2 = 5267
 Inaccurate integrated density:
   Number of electrons =    10
   Numerical integral  =     1.843628067535
   Relative error      =   -81.5637193246 %
Total Number of Grid Points = 8482
 CPU 0.03 s  wall 0.03 s

 Total DFTman time = 0.03 CPUs 0.03 Wall
Fock build time:  0.03 s (CPU) 0.03 s (wall)
DIIS Errors:  Max 2.03E-01 RMS 4.44E-02

Current DIIS subspace size = 2
REM_GRID_RESTART_DIIS = 0

    2     -69.6929489775      4.44E-02  00000
Finding J and K together
 Job number = 22, Threshold = 1.00E-11
Integral type ranges set in mkLRange.C for JobNum: 22  <1-21|1-21>
Approximate symmetry reduction factor = 1.000000
Storing 7686.90% of integrals
Reusing in-core integrals buffer for job 22
Target Grid is being used
 CPU 0.00 s  wall 0.00 s
NTotSigB2 = 5267
 Inaccurate integrated density:
   Number of electrons =    10
   Numerical integral  =     2.305894709531
   Relative error      =   -76.9410529047 %
Total Number of Grid Points = 8482
 CPU 0.02 s  wall 0.02 s

 Total DFTman time = 0.02 CPUs 0.02 Wall
Fock build time:  0.03 s (CPU) 0.03 s (wall)
DIIS Errors:  Max 1.82E-01 RMS 3.26E-02

Current DIIS subspace size = 3
REM_GRID_RESTART_DIIS = 0

    3     -69.8708747204      3.26E-02  00000
Finding J and K together
 Job number = 22, Threshold = 1.00E-11
Integral type ranges set in mkLRange.C for JobNum: 22  <1-21|1-21>
Approximate symmetry reduction factor = 1.000000
Storing 7686.90% of integrals
Reusing in-core integrals buffer for job 22
Target Grid is being used
 CPU 0.00 s  wall 0.00 s
NTotSigB2 = 5267
 Inaccurate integrated density:
   Number of electrons =    10
   Numerical integral  =     2.037886533781
   Relative error      =   -79.6211346622 %
Total Number of Grid Points = 8482
 CPU 0.02 s  wall 0.03 s

 Total DFTman time = 0.02 CPUs 0.03 Wall
Fock build time:  0.03 s (CPU) 0.03 s (wall)
DIIS Errors:  Max 8.75E-02 RMS 1.55E-02

Current DIIS subspace size = 4
REM_GRID_RESTART_DIIS = 0

    4     -69.7940181376      1.55E-02  00000
Finding J and K together
 Job number = 22, Threshold = 1.00E-11
Integral type ranges set in mkLRange.C for JobNum: 22  <1-21|1-21>
Approximate symmetry reduction factor = 1.000000
Storing 7686.90% of integrals
Reusing in-core integrals buffer for job 22
Target Grid is being used
 CPU 0.00 s  wall 0.00 s
NTotSigB2 = 5267
 Inaccurate integrated density:
   Number of electrons =    10
   Numerical integral  =     2.116781111332
   Relative error      =   -78.8321888867 %
Total Number of Grid Points = 8482
 CPU 0.02 s  wall 0.03 s

 Total DFTman time = 0.02 CPUs 0.03 Wall
Fock build time:  0.03 s (CPU) 0.03 s (wall)
DIIS Errors:  Max 4.88E-03 RMS 1.28E-03

Current DIIS subspace size = 5
REM_GRID_RESTART_DIIS = 0

    5     -69.8296647767      1.28E-03  00000
Finding J and K together
 Job number = 22, Threshold = 1.00E-11
Integral type ranges set in mkLRange.C for JobNum: 22  <1-21|1-21>
Approximate symmetry reduction factor = 1.000000
Storing 7686.90% of integrals
Reusing in-core integrals buffer for job 22
Target Grid is being used
 CPU 0.00 s  wall 0.00 s
NTotSigB2 = 5267
 Inaccurate integrated density:
   Number of electrons =    10
   Numerical integral  =     2.132218055261
   Relative error      =   -78.6778194474 %
Total Number of Grid Points = 8482
 CPU 0.02 s  wall 0.02 s

 Total DFTman time = 0.02 CPUs 0.02 Wall
Fock build time:  0.03 s (CPU) 0.03 s (wall)
DIIS Errors:  Max 1.46E-03 RMS 4.55E-04

Current DIIS subspace size = 6
REM_GRID_RESTART_DIIS = 0

    6     -69.8323519762      4.55E-04  00000
Finding J and K together
 Job number = 22, Threshold = 1.00E-11
Integral type ranges set in mkLRange.C for JobNum: 22  <1-21|1-21>
Approximate symmetry reduction factor = 1.000000
Storing 7686.90% of integrals
Reusing in-core integrals buffer for job 22
Target Grid is being used
 CPU 0.00 s  wall 0.00 s
NTotSigB2 = 5267
 Inaccurate integrated density:
   Number of electrons =    10
   Numerical integral  =     2.129557576521
   Relative error      =   -78.7044242348 %
Total Number of Grid Points = 8482
 CPU 0.02 s  wall 0.03 s

 Total DFTman time = 0.02 CPUs 0.03 Wall
Fock build time:  0.03 s (CPU) 0.03 s (wall)
DIIS Errors:  Max 4.40E-04 RMS 1.06E-04

Current DIIS subspace size = 7
REM_GRID_RESTART_DIIS = 0

    7     -69.8319650692      1.06E-04  00000
Finding J and K together
 Job number = 22, Threshold = 1.00E-11
Integral type ranges set in mkLRange.C for JobNum: 22  <1-21|1-21>
Approximate symmetry reduction factor = 1.000000
Storing 7686.90% of integrals
Reusing in-core integrals buffer for job 22
Target Grid is being used
 CPU 0.00 s  wall 0.00 s
NTotSigB2 = 5267
 Inaccurate integrated density:
   Number of electrons =    10
   Numerical integral  =     2.130434029878
   Relative error      =   -78.6956597012 %
Total Number of Grid Points = 8482
 CPU 0.02 s  wall 0.02 s

 Total DFTman time = 0.02 CPUs 0.02 Wall
Fock build time:  0.03 s (CPU) 0.03 s (wall)
DIIS Errors:  Max 1.40E-04 RMS 3.93E-05

Current DIIS subspace size = 8
REM_GRID_RESTART_DIIS = 0

    8     -69.8321079505      3.93E-05  00000
Finding J and K together
 Job number = 22, Threshold = 1.00E-11
Integral type ranges set in mkLRange.C for JobNum: 22  <1-21|1-21>
Approximate symmetry reduction factor = 1.000000
Storing 7686.90% of integrals
Reusing in-core integrals buffer for job 22
Target Grid is being used
 CPU 0.00 s  wall 0.00 s
NTotSigB2 = 5267
 Inaccurate integrated density:
   Number of electrons =    10
   Numerical integral  =     2.130524470236
   Relative error      =   -78.6947552976 %
Total Number of Grid Points = 8482
 CPU 0.02 s  wall 0.02 s

 Total DFTman time = 0.02 CPUs 0.02 Wall
Fock build time:  0.03 s (CPU) 0.03 s (wall)
DIIS Errors:  Max 5.22E-05 RMS 1.26E-05

Current DIIS subspace size = 9
REM_GRID_RESTART_DIIS = 0

    9     -69.8321396510      1.26E-05  00000
Finding J and K together
 Job number = 22, Threshold = 1.00E-11
Integral type ranges set in mkLRange.C for JobNum: 22  <1-21|1-21>
Approximate symmetry reduction factor = 1.000000
Storing 7686.90% of integrals
Reusing in-core integrals buffer for job 22
Target Grid is being used
 CPU 0.00 s  wall 0.00 s
NTotSigB2 = 5267
 Inaccurate integrated density:
   Number of electrons =    10
   Numerical integral  =     2.130463115710
   Relative error      =   -78.6953688429 %
Total Number of Grid Points = 8482
 CPU 0.02 s  wall 0.02 s

 Total DFTman time = 0.02 CPUs 0.02 Wall
Fock build time:  0.03 s (CPU) 0.03 s (wall)
DIIS Errors:  Max 1.27E-05 RMS 3.56E-06

Current DIIS subspace size = 10
REM_GRID_RESTART_DIIS = 0

   10     -69.8321247006      3.56E-06  00000
Finding J and K together
 Job number = 22, Threshold = 1.00E-11
Integral type ranges set in mkLRange.C for JobNum: 22  <1-21|1-21>
Approximate symmetry reduction factor = 1.000000
Storing 7686.90% of integrals
Reusing in-core integrals buffer for job 22
Target Grid is being used
 CPU 0.00 s  wall 0.00 s
NTotSigB2 = 5267
 Inaccurate integrated density:
   Number of electrons =    10
   Numerical integral  =     2.130470362146
   Relative error      =   -78.6952963785 %
Total Number of Grid Points = 8482
 CPU 0.02 s  wall 0.02 s

 Total DFTman time = 0.02 CPUs 0.02 Wall
Fock build time:  0.03 s (CPU) 0.03 s (wall)
DIIS Errors:  Max 1.42E-06 RMS 4.05E-07

Current DIIS subspace size = 11
REM_GRID_RESTART_DIIS = 0

   11     -69.8321253283      4.05E-07  00000
Finding J and K together
 Job number = 22, Threshold = 1.00E-11
Integral type ranges set in mkLRange.C for JobNum: 22  <1-21|1-21>
Approximate symmetry reduction factor = 1.000000
Storing 7686.90% of integrals
Reusing in-core integrals buffer for job 22
Target Grid is being used
 CPU 0.00 s  wall 0.00 s
NTotSigB2 = 5267
 Inaccurate integrated density:
   Number of electrons =    10
   Numerical integral  =     2.130469908258
   Relative error      =   -78.6953009174 %
Total Number of Grid Points = 8482
 CPU 0.02 s  wall 0.02 s

 Total DFTman time = 0.02 CPUs 0.02 Wall
Fock build time:  0.03 s (CPU) 0.03 s (wall)
DIIS Errors:  Max 3.96E-07 RMS 1.29E-07
 Singularity in Pulay DIIS matrix

Current DIIS subspace size = 12
REM_GRID_RESTART_DIIS = 0

NextCycle: DoReset = 1
   12     -69.8321255044      1.29E-07  00000
Finding J and K together
 Job number = 22, Threshold = 1.00E-11
Integral type ranges set in mkLRange.C for JobNum: 22  <1-21|1-21>
Approximate symmetry reduction factor = 1.000000
Storing 7686.90% of integrals
Reusing in-core integrals buffer for job 22
Target Grid is being used
 CPU 0.00 s  wall 0.00 s
NTotSigB2 = 5267
 Inaccurate integrated density:
   Number of electrons =    10
   Numerical integral  =     2.130470032673
   Relative error      =   -78.6952996733 %
Total Number of Grid Points = 8482
 CPU 0.02 s  wall 0.02 s

 Total DFTman time = 0.02 CPUs 0.02 Wall
Fock build time:  0.03 s (CPU) 0.03 s (wall)
DIIS Errors:  Max 3.29E-07 RMS 7.09E-08

Current DIIS subspace size = 2
REM_GRID_RESTART_DIIS = 0

   13     -69.8321253531      7.09E-08  00000
Finding J and K together
 Job number = 22, Threshold = 1.00E-11
Integral type ranges set in mkLRange.C for JobNum: 22  <1-21|1-21>
Approximate symmetry reduction factor = 1.000000
Storing 7686.90% of integrals
Reusing in-core integrals buffer for job 22
Target Grid is being used
 CPU 0.00 s  wall 0.00 s
NTotSigB2 = 5267
 Inaccurate integrated density:
   Number of electrons =    10
   Numerical integral  =     2.130470573004
   Relative error      =   -78.6952942700 %
Total Number of Grid Points = 8482
 CPU 0.02 s  wall 0.02 s

 Total DFTman time = 0.02 CPUs 0.02 Wall
Fock build time:  0.03 s (CPU) 0.03 s (wall)
DIIS Errors:  Max 3.16E-07 RMS 5.56E-08

Current DIIS subspace size = 3
REM_GRID_RESTART_DIIS = 0

   14     -69.8321256020      5.56E-08  00000
Finding J and K together
 Job number = 22, Threshold = 1.00E-11
Integral type ranges set in mkLRange.C for JobNum: 22  <1-21|1-21>
Approximate symmetry reduction factor = 1.000000
Storing 7686.90% of integrals
Reusing in-core integrals buffer for job 22
Target Grid is being used
 CPU 0.00 s  wall 0.00 s
NTotSigB2 = 5267
 Inaccurate integrated density:
   Number of electrons =    10
   Numerical integral  =     2.130470229328
   Relative error      =   -78.6952977067 %
Total Number of Grid Points = 8482
 CPU 0.02 s  wall 0.02 s

 Total DFTman time = 0.02 CPUs 0.02 Wall
Fock build time:  0.03 s (CPU) 0.03 s (wall)
DIIS Errors:  Max 1.92E-08 RMS 4.43E-09

Current DIIS subspace size = 4
REM_GRID_RESTART_DIIS = 0

   15     -69.8321254800      4.43E-09  00000 Convergence criterion met
 ---------------------------------------
 SCF time:  CPU 0.50 s  wall 0.55 s
 Eold:   -0.0101515 E_qmmm:  -69.842276932096 
 SCF   energy in the final basis set = -69.8422769321
 Total energy in the final basis set = -69.8422769321
Symmetry turned off temporarily
 Analysis of SCF Wavefunction

 --------------------------------------------------------------
                    Orbital Energies (a.u.)
 --------------------------------------------------------------

 Alpha MOs
 -- Occupied --
-17.694  -0.814  -0.349  -0.234  -0.193
 -- Virtual --
  0.108   0.211   0.939   0.961   0.982   1.106   1.208   1.243
  1.868   1.892   1.907   2.431   2.774   3.810
 --------------------------------------------------------------

          Ground-State Mulliken Net Atomic Charges

     Atom                 Charge (a.u.)
  ----------------------------------------
      1 O                    -0.559361
      2 H                     0.268174
      3 H                     0.291187
  ----------------------------------------
  Sum of atomic charges =     0.000000

 -----------------------------------------------------------------
                    Cartesian Multipole Moments
 -----------------------------------------------------------------
    Charge (ESU x 10^10)
                 0.0000
    Dipole Moment (Debye)
         X      -1.4030      Y       0.3597      Z       0.9012
       Tot       1.7059
    Quadrupole Moments (Debye-Ang)
        XX     -11.0375     XY       0.8072     YY      -7.5802
        XZ      -0.4757     YZ      -1.0677     ZZ      -6.6638
    Octapole Moments (Debye-Ang^2)
       XXX     -31.4633    XXY       7.0890    XYY      -8.5463
       YYY      15.1898    XXZ      -9.3559    XYZ      -0.5580
       YYZ      -5.2583    XZZ      -8.8124    YZZ       3.3819
       ZZZ     -20.2233
    Hexadecapole Moments (Debye-Ang^3)
      XXXX     -75.0418   XXXY      21.3429   XXYY     -16.9157
      XYYY      17.3723   YYYY     -31.4693   XXXZ     -27.7466
      XXYZ       5.5378   XYYZ      -6.1642   YYYZ      12.8151
      XXZZ     -20.9502   XYZZ       4.7447   YYZZ     -10.3158
      XZZZ     -23.4470   YZZZ      12.7669   ZZZZ     -46.7568
 -----------------------------------------------------------------
 Calculating analytic gradient of the SCF energy
 Job number = 111, Threshold = 1.00E-11
Integral type ranges set in mkLRange.C for JobNum: 11  <1-21|22-22>
Total number of integrals generated =             651
Finding J and K together
 ML is being used
 Job number = 122, Threshold = 1.00E-11
Integral type ranges set in mkLRange.C for JobNum: 22  <1-21|1-21>
Total number of integrals generated =           25330
 Gradient of Coulomb and Exchange Energy
            1           2           3
    1  -1.7957404   0.5219310   1.2738093
    2  -0.1169455   0.9778108  -0.8608653
    3   0.5739044  -0.7280031   0.1540987
 CPU 0.00 s  wall 0.00 s
NTotSigB2 = 5267
Total Number of Grid Points = 8482
 CPU 0.04 s  wall 0.04 s

 Total DFTman time = 0.04 CPUs 0.04 Wall
 Gradient of SCF Energy
            1           2           3
    1  -0.0698780   0.0371113   0.0327666
    2  -0.0301725   0.0873510  -0.0571786
    3   0.1015954  -0.0891419  -0.0124536
 Max gradient component =       1.016E-01
 RMS gradient           =       6.461E-02
 Gradient time:  CPU 0.11 s  wall 0.22 s
 ------------------------------------------------------------------------------
                     drvman        : Timing summary (seconds)
 ------------------------------------------------------------------------------
     job step          cpu (% of tot)      sys (% of tot)     wall (% of tot)
 ------------------------------------------------------------------------------
 ------------------------------------------------------------------------------
   Grand Totals     0.1088E+00          0.3000E-05          0.2171E+00
 ------------------------------------------------------------------------------
 ----------------------------------------------------
       Standard Nuclear Orientation (Angstroms)
    I     Atom         X            Y            Z
 ----------------------------------------------------
    1      O      -0.790909     1.149780     0.907453
    2      H      -1.628044     1.245320     1.376372
    3      H      -0.669346     1.913705     0.331002
    4      O       1.178001    -0.686227     0.841306
    5      H       0.870001    -1.337091     1.468215
    6      H       0.472696    -0.008397     0.851892
 ----------------------------------------------------
 Nuclear Repulsion Energy =     0.0000000000 hartrees
 There are        5 alpha and        5 beta electrons
 Geometry Optimization Parameters
   NAtoms,    NIC,     NZ,  NCons,   NDum,   NFix, NCnnct, MaxDiis
        6      25       0       0       0       0       0       0


** GEOMETRY OPTIMIZATION IN DELOCALIZED INTERNAL COORDINATES **
   Searching for a Minimum

   Optimization Cycle:   1

                       Coordinates (Angstroms)
     ATOM              X           Y           Z
      1  O        -0.790909    1.149780    0.907453
      2  H        -1.628044    1.245320    1.376372
      3  H        -0.669346    1.913705    0.331002
      4  O         1.178001   -0.686227    0.841306
      5  H         0.870001   -1.337091    1.468215
      6  H         0.472696   -0.008397    0.851892
   Point Group: c1    Number of degrees of freedom:    12


   Energy is    -69.842276932


 Attempting to Generate Delocalized Internal Coordinates

 12 Hessian modes will be used to form the next step
  Hessian Eigenvalues:
     0.002066    0.002204    0.071925    0.160000    0.160000    0.160000
     0.200000    0.200000    0.517214    0.544737    0.545660    0.566233

 Minimum Search - Taking Simple RFO Step
 Searching for Lamda that Minimizes Along All modes
 Value Taken    Lamda =  -0.04242749
 Calculated Step too Large.  Step scaled by  0.903536
 Step Taken.  Stepsize is  0.300000

                             Maximum     Tolerance    Cnvgd?
         Gradient           0.113468      0.000300      NO
         Displacement       0.164378      0.001200      NO
         Energy change     *********      0.000001      NO


 New Cartesian Coordinates Obtained by Inverse Iteration

 Displacement from previous Coordinates is:  0.288140
 ----------------------------------------------------
       Standard Nuclear Orientation (Angstroms)
    I     Atom         X            Y            Z
 ----------------------------------------------------
    1      O      -0.797164     1.181856     0.918528
    2      H      -1.652789     1.265807     1.343419
    3      H      -0.706083     1.947218     0.346960
    4      O       1.208386    -0.724674     0.793244
    5      H       0.907498    -1.413795     1.533350
    6      H       0.472551     0.020679     0.840739
 ----------------------------------------------------
 Nuclear Repulsion Energy =     0.0000000000 hartrees
 There are        5 alpha and        5 beta electrons
 opened zmat2 in MoleculeInput::write (get connectivity info)
   **** Step 1: MM calculation on the entire system **** 
 OPLSAA force field loaded.
 getting molecule information
 Reading atomic types. 
Wrote 0 MM bonds to file 840
 Time req'd to get MM system information: 0.0 s (CPU) 0.0 s (wall)

 ------ MM Energies ------
   Ebond:             9.488037035169
   Eangle:            0.040952184021
   EUreyBrad:         0.737141490298
   Eimptors:          0.000000000000
   Etorsion:          0.000000000000
   Evdw:              1.535149051747
   Ecoulomb:         -9.426509720100
   Etot:              2.374770041134 Kcal/mol (      0.003784436970 hartree)
 -------------------------
 Time req'd to calc MM energy: 0.0 s (CPU) 0.0 s (wall)
 Call to compute MM gradient 
 OPLSAA force field loaded.
 getting molecule information
 Reading atomic types. 
Wrote 0 MM bonds to file 840
 Time req'd to get MM system information: 0.0 s (CPU) 0.0 s (wall)
 Time req'd to calc MM gradient: 0.0 s (CPU) 0.0 s (wall)
   **** Step 2: MM calculation on the model system **** 
 In set_model_system 
 set_model_system n_atoms = 6
 1 Reading atomic types. 
 n_atoms_model: 3
 n_qm_bonds = 2
 ----------------------------------------------------
       Standard Nuclear Orientation (Angstroms)
    I     Atom         X            Y            Z
 ----------------------------------------------------
    1      O       1.208386    -0.724674     0.793244
    2      H       0.907498    -1.413795     1.533350
    3      H       0.472551     0.020679     0.840739
 ----------------------------------------------------
 Nuclear Repulsion Energy =     8.3706787243 hartrees
 There are        5 alpha and        5 beta electrons
 OPLSAA force field loaded.
 getting molecule information
 Reading atomic types. 
Wrote 0 MM bonds to file 848
Finding angles...
Finding torsions...
Finding improper torsions...
 Time req'd to get MM system information: 0.0 s (CPU) 0.0 s (wall)

 ------ MM Energies ------
   Ebond:             9.483365588918
   Eangle:            0.012130565104
   EUreyBrad:         0.721513597002
   Eimptors:          0.000000000000
   Etorsion:          0.000000000000
   Evdw:              0.000000000000
   Ecoulomb:          0.000000000000
   Etot:             10.217009751023 Kcal/mol (      0.016281841507 hartree)
 -------------------------
 Eold:    0.0037844 mm_energy:    0.0162818 Enew:   -0.0124974
 Time req'd to calc MM energy: 0.0 s (CPU) 0.0 s (wall)
 Call to compute MM gradient 
 OPLSAA force field loaded.
 getting molecule information
 Reading atomic types. 
Wrote 0 MM bonds to file 848
Finding angles...
Finding torsions...
Finding improper torsions...
 Time req'd to get MM system information: 0.0 s (CPU) 0.0 s (wall)
 Time req'd to calc MM gradient: 0.0 s (CPU) 0.0 s (wall)
   **** Step 3: QM calculation on the model system **** 
 Requested basis set is 6-31G(d)
 There are 8 shells and 19 basis functions
 Applying Cartesian multipole field
    Component          Value
    ---------          -----
     (2,0,0)        1.00000E-10
     (0,2,0)        2.00000E-10
     (0,0,2)       -3.00000E-10
 Nucleus-field energy     =     0.0000000003 hartrees
 Job number = 2, Threshold = 1.00E-11
Integral type ranges set in mkLRange.C for JobNum: 2  <1-21|1-21>
Symmetry turned off temporarily
Total number of integrals generated =            3571
Symmetry turned back on
 A cutoff of  1.0D-11 yielded     36 shell pairs
 There are       217 function pairs
 Job number = 11, Threshold = 1.00E-11
Integral type ranges set in mkLRange.C for JobNum: 11  <1-21|22-22>
Total number of integrals generated =             651
 Smallest overlap matrix eigenvalue = 2.59E-02
 Multipole matrices computed through 2nd order
 Guess from superposition of atomic densities
 Warning:  Energy on first SCF cycle will be non-variational
 A restricted hybrid HF-DFT SCF calculation will be
 performed using Pulay DIIS extrapolation
 Exchange:     0.2500 Hartree-Fock + 0.7500 PBE
 Correlation:  1.0000 PBE
 Using SG-1 standard quadrature grid
 SCF converges when DIIS error is below 1.0E-08
Finding J and K together
 Job number = 22, Threshold = 1.00E-11
Integral type ranges set in mkLRange.C for JobNum: 22  <1-21|1-21>
Storing 7686.90% of integrals
Total number of integrals generated =           25981
Target Grid is being used
 CPU 0.00 s  wall 0.00 s
NTotSigB2 = 5267
 Inaccurate integrated density:
   Number of electrons =    10
   Numerical integral  =     2.683469158890
   Relative error      =   -73.1653084111 %
Total Number of Grid Points = 8482
 CPU 0.04 s  wall 0.04 s

 Total DFTman time = 0.04 CPUs 0.04 Wall
Fock build time:  0.05 s (CPU) 0.05 s (wall)
DIIS Errors:  Max 8.77E-01 RMS 1.67E-01

Current DIIS subspace size = 1
REM_GRID_RESTART_DIIS = 0

 ---------------------------------------
  Cycle       Energy         DIIS Error
 ---------------------------------------
    1     -69.8499990354      1.67E-01  00000
Finding J and K together
 Job number = 22, Threshold = 1.00E-11
Integral type ranges set in mkLRange.C for JobNum: 22  <1-21|1-21>
Storing 7686.90% of integrals
Reusing in-core integrals buffer for job 22
Target Grid is being used
 CPU 0.00 s  wall 0.00 s
NTotSigB2 = 5267
 Inaccurate integrated density:
   Number of electrons =    10
   Numerical integral  =     1.869076102072
   Relative error      =   -81.3092389793 %
Total Number of Grid Points = 8482
 CPU 0.03 s  wall 0.03 s

 Total DFTman time = 0.03 CPUs 0.03 Wall
Fock build time:  0.04 s (CPU) 0.04 s (wall)
DIIS Errors:  Max 2.29E-01 RMS 4.84E-02

Current DIIS subspace size = 2
REM_GRID_RESTART_DIIS = 0

    2     -69.7299138628      4.84E-02  00000
Finding J and K together
 Job number = 22, Threshold = 1.00E-11
Integral type ranges set in mkLRange.C for JobNum: 22  <1-21|1-21>
Storing 7686.90% of integrals
Reusing in-core integrals buffer for job 22
Target Grid is being used
 CPU 0.00 s  wall 0.00 s
NTotSigB2 = 5267
 Inaccurate integrated density:
   Number of electrons =    10
   Numerical integral  =     2.397688510079
   Relative error      =   -76.0231148992 %
Total Number of Grid Points = 8482
 CPU 0.03 s  wall 0.03 s

 Total DFTman time = 0.03 CPUs 0.03 Wall
Fock build time:  0.03 s (CPU) 0.03 s (wall)
DIIS Errors:  Max 1.93E-01 RMS 3.45E-02

Current DIIS subspace size = 3
REM_GRID_RESTART_DIIS = 0

    3     -69.9342463990      3.45E-02  00000
Finding J and K together
 Job number = 22, Threshold = 1.00E-11
Integral type ranges set in mkLRange.C for JobNum: 22  <1-21|1-21>
Storing 7686.90% of integrals
Reusing in-core integrals buffer for job 22
Target Grid is being used
 CPU 0.00 s  wall 0.00 s
NTotSigB2 = 5267
 Inaccurate integrated density:
   Number of electrons =    10
   Numerical integral  =     2.107894898232
   Relative error      =   -78.9210510177 %
Total Number of Grid Points = 8482
 CPU 0.02 s  wall 0.02 s

 Total DFTman time = 0.02 CPUs 0.02 Wall
Fock build time:  0.03 s (CPU) 0.03 s (wall)
DIIS Errors:  Max 9.49E-02 RMS 1.71E-02

Current DIIS subspace size = 4
REM_GRID_RESTART_DIIS = 0

    4     -69.8546250619      1.71E-02  00000
Finding J and K together
 Job number = 22, Threshold = 1.00E-11
Integral type ranges set in mkLRange.C for JobNum: 22  <1-21|1-21>
Storing 7686.90% of integrals
Reusing in-core integrals buffer for job 22
Target Grid is being used
 CPU 0.00 s  wall 0.00 s
NTotSigB2 = 5267
 Inaccurate integrated density:
   Number of electrons =    10
   Numerical integral  =     2.191063253728
   Relative error      =   -78.0893674627 %
Total Number of Grid Points = 8482
 CPU 0.02 s  wall 0.02 s

 Total DFTman time = 0.02 CPUs 0.02 Wall
Fock build time:  0.03 s (CPU) 0.03 s (wall)
DIIS Errors:  Max 5.88E-03 RMS 1.38E-03

Current DIIS subspace size = 5
REM_GRID_RESTART_DIIS = 0

    5     -69.8928710808      1.38E-03  00000
Finding J and K together
 Job number = 22, Threshold = 1.00E-11
Integral type ranges set in mkLRange.C for JobNum: 22  <1-21|1-21>
Storing 7686.90% of integrals
Reusing in-core integrals buffer for job 22
Target Grid is being used
 CPU 0.00 s  wall 0.00 s
NTotSigB2 = 5267
 Inaccurate integrated density:
   Number of electrons =    10
   Numerical integral  =     2.202080982131
   Relative error      =   -77.9791901787 %
Total Number of Grid Points = 8482
 CPU 0.02 s  wall 0.02 s

 Total DFTman time = 0.02 CPUs 0.02 Wall
Fock build time:  0.03 s (CPU) 0.03 s (wall)
DIIS Errors:  Max 1.33E-03 RMS 3.50E-04

Current DIIS subspace size = 6
REM_GRID_RESTART_DIIS = 0

    6     -69.8942989964      3.50E-04  00000
Finding J and K together
 Job number = 22, Threshold = 1.00E-11
Integral type ranges set in mkLRange.C for JobNum: 22  <1-21|1-21>
Storing 7686.90% of integrals
Reusing in-core integrals buffer for job 22
Target Grid is being used
 CPU 0.00 s  wall 0.00 s
NTotSigB2 = 5267
 Inaccurate integrated density:
   Number of electrons =    10
   Numerical integral  =     2.199809106233
   Relative error      =   -78.0019089377 %
Total Number of Grid Points = 8482
 CPU 0.02 s  wall 0.02 s

 Total DFTman time = 0.02 CPUs 0.02 Wall
Fock build time:  0.03 s (CPU) 0.03 s (wall)
DIIS Errors:  Max 3.17E-04 RMS 8.22E-05

Current DIIS subspace size = 7
REM_GRID_RESTART_DIIS = 0

    7     -69.8940966294      8.22E-05  00000
Finding J and K together
 Job number = 22, Threshold = 1.00E-11
Integral type ranges set in mkLRange.C for JobNum: 22  <1-21|1-21>
Storing 7686.90% of integrals
Reusing in-core integrals buffer for job 22
Target Grid is being used
 CPU 0.00 s  wall 0.00 s
NTotSigB2 = 5267
 Inaccurate integrated density:
   Number of electrons =    10
   Numerical integral  =     2.200248978599
   Relative error      =   -77.9975102140 %
Total Number of Grid Points = 8482
 CPU 0.02 s  wall 0.02 s

 Total DFTman time = 0.02 CPUs 0.02 Wall
Fock build time:  0.03 s (CPU) 0.03 s (wall)
DIIS Errors:  Max 4.58E-05 RMS 1.29E-05

Current DIIS subspace size = 8
REM_GRID_RESTART_DIIS = 0

    8     -69.8941106991      1.29E-05  00000
Finding J and K together
 Job number = 22, Threshold = 1.00E-11
Integral type ranges set in mkLRange.C for JobNum: 22  <1-21|1-21>
Storing 7686.90% of integrals
Reusing in-core integrals buffer for job 22
Target Grid is being used
 CPU 0.00 s  wall 0.00 s
NTotSigB2 = 5267
 Inaccurate integrated density:
   Number of electrons =    10
   Numerical integral  =     2.200243791986
   Relative error      =   -77.9975620801 %
Total Number of Grid Points = 8482
 CPU 0.02 s  wall 0.02 s

 Total DFTman time = 0.02 CPUs 0.02 Wall
Fock build time:  0.03 s (CPU) 0.03 s (wall)
DIIS Errors:  Max 8.85E-06 RMS 2.88E-06

Current DIIS subspace size = 9
REM_GRID_RESTART_DIIS = 0

    9     -69.8941223104      2.88E-06  00000
Finding J and K together
 Job number = 22, Threshold = 1.00E-11
Integral type ranges set in mkLRange.C for JobNum: 22  <1-21|1-21>
Storing 7686.90% of integrals
Reusing in-core integrals buffer for job 22
Target Grid is being used
 CPU 0.00 s  wall 0.00 s
NTotSigB2 = 5267
 Inaccurate integrated density:
   Number of electrons =    10
   Numerical integral  =     2.200244467983
   Relative error      =   -77.9975553202 %
Total Number of Grid Points = 8482
 CPU 0.02 s  wall 0.02 s

 Total DFTman time = 0.02 CPUs 0.02 Wall
Fock build time:  0.03 s (CPU) 0.03 s (wall)
DIIS Errors:  Max 1.19E-06 RMS 4.53E-07

Current DIIS subspace size = 10
REM_GRID_RESTART_DIIS = 0

   10     -69.8941206894      4.53E-07  00000
Finding J and K together
 Job number = 22, Threshold = 1.00E-11
Integral type ranges set in mkLRange.C for JobNum: 22  <1-21|1-21>
Storing 7686.90% of integrals
Reusing in-core integrals buffer for job 22
Target Grid is being used
 CPU 0.00 s  wall 0.00 s
NTotSigB2 = 5267
 Inaccurate integrated density:
   Number of electrons =    10
   Numerical integral  =     2.200248961118
   Relative error      =   -77.9975103888 %
Total Number of Grid Points = 8482
 CPU 0.02 s  wall 0.02 s

 Total DFTman time = 0.02 CPUs 0.02 Wall
Fock build time:  0.03 s (CPU) 0.03 s (wall)
DIIS Errors:  Max 5.43E-07 RMS 1.20E-07
 Singularity in Pulay DIIS matrix

Current DIIS subspace size = 11
REM_GRID_RESTART_DIIS = 0

NextCycle: DoReset = 1
   11     -69.8941214722      1.20E-07  00000
Finding J and K together
 Job number = 22, Threshold = 1.00E-11
Integral type ranges set in mkLRange.C for JobNum: 22  <1-21|1-21>
Storing 7686.90% of integrals
Reusing in-core integrals buffer for job 22
Target Grid is being used
 CPU 0.00 s  wall 0.00 s
NTotSigB2 = 5267
 Inaccurate integrated density:
   Number of electrons =    10
   Numerical integral  =     2.200248509474
   Relative error      =   -77.9975149053 %
Total Number of Grid Points = 8482
 CPU 0.02 s  wall 0.02 s

 Total DFTman time = 0.02 CPUs 0.02 Wall
Fock build time:  0.03 s (CPU) 0.03 s (wall)
DIIS Errors:  Max 2.41E-07 RMS 6.86E-08

Current DIIS subspace size = 2
REM_GRID_RESTART_DIIS = 0

   12     -69.8941215633      6.86E-08  00000
Finding J and K together
 Job number = 22, Threshold = 1.00E-11
Integral type ranges set in mkLRange.C for JobNum: 22  <1-21|1-21>
Storing 7686.90% of integrals
Reusing in-core integrals buffer for job 22
Target Grid is being used
 CPU 0.00 s  wall 0.00 s
NTotSigB2 = 5267
 Inaccurate integrated density:
   Number of electrons =    10
   Numerical integral  =     2.200248318873
   Relative error      =   -77.9975168113 %
Total Number of Grid Points = 8482
 CPU 0.02 s  wall 0.02 s

 Total DFTman time = 0.02 CPUs 0.02 Wall
Fock build time:  0.03 s (CPU) 0.03 s (wall)
DIIS Errors:  Max 1.96E-07 RMS 3.44E-08

Current DIIS subspace size = 3
REM_GRID_RESTART_DIIS = 0

   13     -69.8941214160      3.44E-08  00000
Finding J and K together
 Job number = 22, Threshold = 1.00E-11
Integral type ranges set in mkLRange.C for JobNum: 22  <1-21|1-21>
Storing 7686.90% of integrals
Reusing in-core integrals buffer for job 22
Target Grid is being used
 CPU 0.00 s  wall 0.00 s
NTotSigB2 = 5267
 Inaccurate integrated density:
   Number of electrons =    10
   Numerical integral  =     2.200248614069
   Relative error      =   -77.9975138593 %
Total Number of Grid Points = 8482
 CPU 0.02 s  wall 0.02 s

 Total DFTman time = 0.02 CPUs 0.02 Wall
Fock build time:  0.03 s (CPU) 0.03 s (wall)
DIIS Errors:  Max 7.50E-08 RMS 1.43E-08

Current DIIS subspace size = 4
REM_GRID_RESTART_DIIS = 0

   14     -69.8941215177      1.43E-08  00000
Finding J and K together
 Job number = 22, Threshold = 1.00E-11
Integral type ranges set in mkLRange.C for JobNum: 22  <1-21|1-21>
Storing 7686.90% of integrals
Reusing in-core integrals buffer for job 22
Target Grid is being used
 CPU 0.00 s  wall 0.00 s
NTotSigB2 = 5267
 Inaccurate integrated density:
   Number of electrons =    10
   Numerical integral  =     2.200248547966
   Relative error      =   -77.9975145203 %
Total Number of Grid Points = 8482
 CPU 0.02 s  wall 0.02 s

 Total DFTman time = 0.02 CPUs 0.02 Wall
Fock build time:  0.03 s (CPU) 0.03 s (wall)
DIIS Errors:  Max 6.24E-09 RMS 1.45E-09
 Singularity in Pulay DIIS matrix

Current DIIS subspace size = 5
REM_GRID_RESTART_DIIS = 0

NextCycle: DoReset = 1
   15     -69.8941214945      1.45E-09  00000 Convergence criterion met
 ---------------------------------------
 SCF time:  CPU 0.50 s  wall 0.51 s
 Eold:   -0.0124974 E_qmmm:  -69.906618898994 
 SCF   energy in the final basis set = -69.9066188990
 Total energy in the final basis set = -69.9066188990
Symmetry turned off temporarily
 Analysis of SCF Wavefunction

 --------------------------------------------------------------
                    Orbital Energies (a.u.)
 --------------------------------------------------------------

 Alpha MOs
 -- Occupied --
-17.697  -0.793  -0.332  -0.241  -0.193
 -- Virtual --
  0.098   0.193   0.923   0.951   0.977   1.019   1.168   1.234
  1.870   1.896   1.910   2.328   2.626   3.760
 --------------------------------------------------------------

          Ground-State Mulliken Net Atomic Charges

     Atom                 Charge (a.u.)
  ----------------------------------------
      1 O                    -0.509275
      2 H                     0.237523
      3 H                     0.271752
  ----------------------------------------
  Sum of atomic charges =     0.000000

 -----------------------------------------------------------------
                    Cartesian Multipole Moments
 -----------------------------------------------------------------
    Charge (ESU x 10^10)
                 0.0000
    Dipole Moment (Debye)
         X      -1.2810      Y       0.4496      Z       0.9566
       Tot       1.6608
    Quadrupole Moments (Debye-Ang)
        XX     -11.0445     XY       0.7963     YY      -7.8270
        XZ      -0.2901     YZ      -1.1206     ZZ      -6.6528
    Octapole Moments (Debye-Ang^2)
       XXX     -32.3571    XXY       7.4889    XYY      -8.8822
       YYY      16.4625    XXZ      -9.0822    XYZ      -0.7059
       YYZ      -5.0235    XZZ      -8.8079    YZZ       3.5570
       ZZZ     -19.6562
    Hexadecapole Moments (Debye-Ang^3)
      XXXX     -78.9366   XXXY      23.2937   XXYY     -18.2951
      XYYY      19.1726   YYYY     -35.7844   XXXZ     -27.7101
      XXYZ       5.7407   XYYZ      -5.9617   YYYZ      13.4089
      XXZZ     -21.1416   XYZZ       5.0393   YYZZ     -10.4779
      XZZZ     -22.9672   YZZZ      13.1819   ZZZZ     -45.6234
 -----------------------------------------------------------------
 Calculating analytic gradient of the SCF energy
 Job number = 111, Threshold = 1.00E-11
Integral type ranges set in mkLRange.C for JobNum: 11  <1-21|22-22>
Total number of integrals generated =             651
Finding J and K together
 ML is being used
 Job number = 122, Threshold = 1.00E-11
Integral type ranges set in mkLRange.C for JobNum: 22  <1-21|1-21>
Total number of integrals generated =           25330
 Gradient of Coulomb and Exchange Energy
            1           2           3
    1  -1.4947299   0.3721008   1.1226291
    2  -0.0289224   0.8881893  -0.8592669
    3   0.6330309  -0.7582175   0.1251866
 CPU 0.00 s  wall 0.00 s
NTotSigB2 = 5267
Total Number of Grid Points = 8482
 CPU 0.04 s  wall 0.04 s

 Total DFTman time = 0.04 CPUs 0.04 Wall
 Gradient of SCF Energy
            1           2           3
    1  -0.0000070   0.0094677  -0.0094607
    2  -0.0060394   0.0141386  -0.0080991
    3   0.0370152  -0.0219826  -0.0150326
 Max gradient component =       3.702E-02
 RMS gradient           =       1.687E-02
 Gradient time:  CPU 0.08 s  wall 0.08 s
 ------------------------------------------------------------------------------
                     drvman        : Timing summary (seconds)
 ------------------------------------------------------------------------------
     job step          cpu (% of tot)      sys (% of tot)     wall (% of tot)
 ------------------------------------------------------------------------------
 ------------------------------------------------------------------------------
   Grand Totals     0.8028E-01          0.0000E+00          0.7950E-01
 ------------------------------------------------------------------------------
 ----------------------------------------------------
       Standard Nuclear Orientation (Angstroms)
    I     Atom         X            Y            Z
 ----------------------------------------------------
    1      O      -0.797164     1.181856     0.918528
    2      H      -1.652789     1.265807     1.343419
    3      H      -0.706083     1.947218     0.346960
    4      O       1.208386    -0.724674     0.793244
    5      H       0.907498    -1.413795     1.533350
    6      H       0.472551     0.020679     0.840739
 ----------------------------------------------------
 Nuclear Repulsion Energy =     0.0000000000 hartrees
 There are        5 alpha and        5 beta electrons
 Geometry Optimization Parameters
   NAtoms,    NIC,     NZ,  NCons,   NDum,   NFix, NCnnct, MaxDiis
        6      25       0       0       0       0       0       0

 Cartesian Hessian Update
 Hessian Updated using BFGS Update


** GEOMETRY OPTIMIZATION IN DELOCALIZED INTERNAL COORDINATES **
   Searching for a Minimum

   Optimization Cycle:   2

                       Coordinates (Angstroms)
     ATOM              X           Y           Z
      1  O        -0.797164    1.181856    0.918528
      2  H        -1.652789    1.265807    1.343419
      3  H        -0.706083    1.947218    0.346960
      4  O         1.208386   -0.724674    0.793244
      5  H         0.907498   -1.413795    1.533350
      6  H         0.472551    0.020679    0.840739
   Point Group: c1    Number of degrees of freedom:    12


   Energy is    -69.906618899

 Hessian Updated using BFGS Update

 11 Hessian modes will be used to form the next step
  Hessian Eigenvalues:
     0.002110    0.002197    0.072088    0.152727    0.162271    0.191603
     0.200001    0.525490    0.543681    0.545262    0.562854

 Minimum Search - Taking Simple RFO Step
 Searching for Lamda that Minimizes Along All modes
 Value Taken    Lamda =  -0.00875395
 Calculated Step too Large.  Step scaled by  0.491709
 Step Taken.  Stepsize is  0.300000

                             Maximum     Tolerance    Cnvgd?
         Gradient           0.020753      0.000300      NO
         Displacement       0.273716      0.001200      NO
         Energy change     -0.064342      0.000001      NO


 New Cartesian Coordinates Obtained by Inverse Iteration

 Displacement from previous Coordinates is:  0.198561
 ----------------------------------------------------
       Standard Nuclear Orientation (Angstroms)
    I     Atom         X            Y            Z
 ----------------------------------------------------
    1      O      -0.765488     1.199327     0.965608
    2      H      -1.662523     1.237958     1.302893
    3      H      -0.707356     1.938296     0.356127
    4      O       1.189341    -0.746877     0.748636
    5      H       0.901161    -1.380631     1.560889
    6      H       0.477263     0.029017     0.842086
 ----------------------------------------------------
 Nuclear Repulsion Energy =     0.0000000000 hartrees
 There are        5 alpha and        5 beta electrons
 opened zmat2 in MoleculeInput::write (get connectivity info)
   **** Step 1: MM calculation on the entire system **** 
 OPLSAA force field loaded.
 getting molecule information
 Reading atomic types. 
Wrote 0 MM bonds to file 840
 Time req'd to get MM system information: 0.0 s (CPU) 0.0 s (wall)

 ------ MM Energies ------
   Ebond:            12.020766813298
   Eangle:            0.148956769821
   EUreyBrad:         0.590546677210
   Eimptors:          0.000000000000
   Etorsion:          0.000000000000
   Evdw:              1.563936460306
   Ecoulomb:         -9.806427404062
   Etot:              4.517779316573 Kcal/mol (      0.007199539649 hartree)
 -------------------------
 Time req'd to calc MM energy: 0.0 s (CPU) 0.0 s (wall)
 Call to compute MM gradient 
 OPLSAA force field loaded.
 getting molecule information
 Reading atomic types. 
Wrote 0 MM bonds to file 840
 Time req'd to get MM system information: 0.0 s (CPU) 0.0 s (wall)
 Time req'd to calc MM gradient: 0.0 s (CPU) 0.0 s (wall)
   **** Step 2: MM calculation on the model system **** 
 In set_model_system 
 set_model_system n_atoms = 6
 1 Reading atomic types. 
 n_atoms_model: 3
 n_qm_bonds = 2
 ----------------------------------------------------
       Standard Nuclear Orientation (Angstroms)
    I     Atom         X            Y            Z
 ----------------------------------------------------
    1      O       1.189341    -0.746877     0.748636
    2      H       0.901161    -1.380631     1.560889
    3      H       0.477263     0.029017     0.842086
 ----------------------------------------------------
 Nuclear Repulsion Energy =     8.2844257856 hartrees
 There are        5 alpha and        5 beta electrons
 OPLSAA force field loaded.
 getting molecule information
 Reading atomic types. 
Wrote 0 MM bonds to file 848
Finding angles...
Finding torsions...
Finding improper torsions...
 Time req'd to get MM system information: 0.0 s (CPU) 0.0 s (wall)

 ------ MM Energies ------
   Ebond:            12.015630071059
   Eangle:            0.148847141018
   EUreyBrad:         0.590325406751
   Eimptors:          0.000000000000
   Etorsion:          0.000000000000
   Evdw:              0.000000000000
   Ecoulomb:          0.000000000000
   Etot:             12.754802618828 Kcal/mol (      0.020326071889 hartree)
 -------------------------
 Eold:    0.0071995 mm_energy:    0.0203261 Enew:   -0.0131265
 Time req'd to calc MM energy: 0.0 s (CPU) 0.0 s (wall)
 Call to compute MM gradient 
 OPLSAA force field loaded.
 getting molecule information
 Reading atomic types. 
Wrote 0 MM bonds to file 848
Finding angles...
Finding torsions...
Finding improper torsions...
 Time req'd to get MM system information: 0.0 s (CPU) 0.0 s (wall)
 Time req'd to calc MM gradient: 0.0 s (CPU) 0.0 s (wall)
   **** Step 3: QM calculation on the model system **** 
 Requested basis set is 6-31G(d)
 There are 8 shells and 19 basis functions
 Applying Cartesian multipole field
    Component          Value
    ---------          -----
     (2,0,0)        1.00000E-10
     (0,2,0)        2.00000E-10
     (0,0,2)       -3.00000E-10
 Nucleus-field energy     =     0.0000000008 hartrees
 Job number = 2, Threshold = 1.00E-11
Integral type ranges set in mkLRange.C for JobNum: 2  <1-21|1-21>
Symmetry turned off temporarily
Total number of integrals generated =            3571
Symmetry turned back on
 A cutoff of  1.0D-11 yielded     36 shell pairs
 There are       217 function pairs
 Job number = 11, Threshold = 1.00E-11
Integral type ranges set in mkLRange.C for JobNum: 11  <1-21|22-22>
Total number of integrals generated =             651
 Smallest overlap matrix eigenvalue = 2.64E-02
 Multipole matrices computed through 2nd order
 Guess from superposition of atomic densities
 Warning:  Energy on first SCF cycle will be non-variational
 A restricted hybrid HF-DFT SCF calculation will be
 performed using Pulay DIIS extrapolation
 Exchange:     0.2500 Hartree-Fock + 0.7500 PBE
 Correlation:  1.0000 PBE
 Using SG-1 standard quadrature grid
 SCF converges when DIIS error is below 1.0E-08
Finding J and K together
 Job number = 22, Threshold = 1.00E-11
Integral type ranges set in mkLRange.C for JobNum: 22  <1-21|1-21>
Storing 7686.90% of integrals
Total number of integrals generated =           25981
Target Grid is being used
 CPU 0.00 s  wall 0.00 s
NTotSigB2 = 5267
 Inaccurate integrated density:
   Number of electrons =    10
   Numerical integral  =     2.688195406685
   Relative error      =   -73.1180459331 %
Total Number of Grid Points = 8482
 CPU 0.04 s  wall 0.04 s

 Total DFTman time = 0.04 CPUs 0.04 Wall
Fock build time:  0.05 s (CPU) 0.05 s (wall)
DIIS Errors:  Max 8.65E-01 RMS 1.65E-01

Current DIIS subspace size = 1
REM_GRID_RESTART_DIIS = 0

 ---------------------------------------
  Cycle       Energy         DIIS Error
 ---------------------------------------
    1     -69.8424941446      1.65E-01  00000
Finding J and K together
 Job number = 22, Threshold = 1.00E-11
Integral type ranges set in mkLRange.C for JobNum: 22  <1-21|1-21>
Storing 7686.90% of integrals
Reusing in-core integrals buffer for job 22
Target Grid is being used
 CPU 0.00 s  wall 0.00 s
NTotSigB2 = 5267
 Inaccurate integrated density:
   Number of electrons =    10
   Numerical integral  =     1.866753868730
   Relative error      =   -81.3324613127 %
Total Number of Grid Points = 8482
 CPU 0.03 s  wall 0.03 s

 Total DFTman time = 0.03 CPUs 0.03 Wall
Fock build time:  0.03 s (CPU) 0.03 s (wall)
DIIS Errors:  Max 2.34E-01 RMS 4.92E-02

Current DIIS subspace size = 2
REM_GRID_RESTART_DIIS = 0

    2     -69.7335624618      4.92E-02  00000
Finding J and K together
 Job number = 22, Threshold = 1.00E-11
Integral type ranges set in mkLRange.C for JobNum: 22  <1-21|1-21>
Storing 7686.90% of integrals
Reusing in-core integrals buffer for job 22
Target Grid is being used
 CPU 0.00 s  wall 0.00 s
NTotSigB2 = 5267
 Inaccurate integrated density:
   Number of electrons =    10
   Numerical integral  =     2.442171871896
   Relative error      =   -75.5782812810 %
Total Number of Grid Points = 8482
 CPU 0.02 s  wall 0.02 s

 Total DFTman time = 0.02 CPUs 0.02 Wall
Fock build time:  0.03 s (CPU) 0.03 s (wall)
DIIS Errors:  Max 2.00E-01 RMS 3.55E-02

Current DIIS subspace size = 3
REM_GRID_RESTART_DIIS = 0

    3     -69.9511319475      3.55E-02  00000
Finding J and K together
 Job number = 22, Threshold = 1.00E-11
Integral type ranges set in mkLRange.C for JobNum: 22  <1-21|1-21>
Storing 7686.90% of integrals
Reusing in-core integrals buffer for job 22
Target Grid is being used
 CPU 0.00 s  wall 0.00 s
NTotSigB2 = 5267
 Inaccurate integrated density:
   Number of electrons =    10
   Numerical integral  =     2.129494997276
   Relative error      =   -78.7050500272 %
Total Number of Grid Points = 8482
 CPU 0.03 s  wall 0.02 s

 Total DFTman time = 0.03 CPUs 0.02 Wall
Fock build time:  0.03 s (CPU) 0.03 s (wall)
DIIS Errors:  Max 9.47E-02 RMS 1.69E-02

Current DIIS subspace size = 4
REM_GRID_RESTART_DIIS = 0

    4     -69.8693815444      1.69E-02  00000
Finding J and K together
 Job number = 22, Threshold = 1.00E-11
Integral type ranges set in mkLRange.C for JobNum: 22  <1-21|1-21>
Storing 7686.90% of integrals
Reusing in-core integrals buffer for job 22
Target Grid is being used
 CPU 0.00 s  wall 0.00 s
NTotSigB2 = 5267
 Inaccurate integrated density:
   Number of electrons =    10
   Numerical integral  =     2.214363724909
   Relative error      =   -77.8563627509 %
Total Number of Grid Points = 8482
 CPU 0.02 s  wall 0.02 s

 Total DFTman time = 0.02 CPUs 0.02 Wall
Fock build time:  0.03 s (CPU) 0.03 s (wall)
DIIS Errors:  Max 5.77E-03 RMS 1.43E-03

Current DIIS subspace size = 5
REM_GRID_RESTART_DIIS = 0

    5     -69.9062587445      1.43E-03  00000
Finding J and K together
 Job number = 22, Threshold = 1.00E-11
Integral type ranges set in mkLRange.C for JobNum: 22  <1-21|1-21>
Storing 7686.90% of integrals
Reusing in-core integrals buffer for job 22
Target Grid is being used
 CPU 0.00 s  wall 0.00 s
NTotSigB2 = 5267
 Inaccurate integrated density:
   Number of electrons =    10
   Numerical integral  =     2.221771210319
   Relative error      =   -77.7822878968 %
Total Number of Grid Points = 8482
 CPU 0.02 s  wall 0.02 s

 Total DFTman time = 0.02 CPUs 0.02 Wall
Fock build time:  0.03 s (CPU) 0.03 s (wall)
DIIS Errors:  Max 1.67E-03 RMS 4.15E-04

Current DIIS subspace size = 6
REM_GRID_RESTART_DIIS = 0

    6     -69.9065245347      4.15E-04  00000
Finding J and K together
 Job number = 22, Threshold = 1.00E-11
Integral type ranges set in mkLRange.C for JobNum: 22  <1-21|1-21>
Storing 7686.90% of integrals
Reusing in-core integrals buffer for job 22
Target Grid is being used
 CPU 0.00 s  wall 0.00 s
NTotSigB2 = 5267
 Inaccurate integrated density:
   Number of electrons =    10
   Numerical integral  =     2.220416225693
   Relative error      =   -77.7958377431 %
Total Number of Grid Points = 8482
 CPU 0.02 s  wall 0.02 s

 Total DFTman time = 0.02 CPUs 0.02 Wall
Fock build time:  0.03 s (CPU) 0.03 s (wall)
DIIS Errors:  Max 6.05E-04 RMS 1.24E-04

Current DIIS subspace size = 7
REM_GRID_RESTART_DIIS = 0

    7     -69.9066985192      1.24E-04  00000
Finding J and K together
 Job number = 22, Threshold = 1.00E-11
Integral type ranges set in mkLRange.C for JobNum: 22  <1-21|1-21>
Storing 7686.90% of integrals
Reusing in-core integrals buffer for job 22
Target Grid is being used
 CPU 0.00 s  wall 0.00 s
NTotSigB2 = 5267
 Inaccurate integrated density:
   Number of electrons =    10
   Numerical integral  =     2.220927348870
   Relative error      =   -77.7907265113 %
Total Number of Grid Points = 8482
 CPU 0.02 s  wall 0.02 s

 Total DFTman time = 0.02 CPUs 0.02 Wall
Fock build time:  0.03 s (CPU) 0.03 s (wall)
DIIS Errors:  Max 9.82E-05 RMS 1.75E-05

Current DIIS subspace size = 8
REM_GRID_RESTART_DIIS = 0

    8     -69.9067306140      1.75E-05  00000
Finding J and K together
 Job number = 22, Threshold = 1.00E-11
Integral type ranges set in mkLRange.C for JobNum: 22  <1-21|1-21>
Storing 7686.90% of integrals
Reusing in-core integrals buffer for job 22
Target Grid is being used
 CPU 0.00 s  wall 0.00 s
NTotSigB2 = 5267
 Inaccurate integrated density:
   Number of electrons =    10
   Numerical integral  =     2.221232262617
   Relative error      =   -77.7876773738 %
Total Number of Grid Points = 8482
 CPU 0.02 s  wall 0.02 s

 Total DFTman time = 0.02 CPUs 0.02 Wall
Fock build time:  0.03 s (CPU) 0.03 s (wall)
DIIS Errors:  Max 1.50E-05 RMS 5.07E-06

Current DIIS subspace size = 9
REM_GRID_RESTART_DIIS = 0

    9     -69.9068085262      5.07E-06  00000
Finding J and K together
 Job number = 22, Threshold = 1.00E-11
Integral type ranges set in mkLRange.C for JobNum: 22  <1-21|1-21>
Storing 7686.90% of integrals
Reusing in-core integrals buffer for job 22
Target Grid is being used
 CPU 0.00 s  wall 0.00 s
NTotSigB2 = 5267
 Inaccurate integrated density:
   Number of electrons =    10
   Numerical integral  =     2.221261758322
   Relative error      =   -77.7873824168 %
Total Number of Grid Points = 8482
 CPU 0.02 s  wall 0.02 s

 Total DFTman time = 0.02 CPUs 0.02 Wall
Fock build time:  0.03 s (CPU) 0.03 s (wall)
DIIS Errors:  Max 6.70E-06 RMS 1.99E-06

Current DIIS subspace size = 10
REM_GRID_RESTART_DIIS = 0

   10     -69.9068197065      1.99E-06  00000
Finding J and K together
 Job number = 22, Threshold = 1.00E-11
Integral type ranges set in mkLRange.C for JobNum: 22  <1-21|1-21>
Storing 7686.90% of integrals
Reusing in-core integrals buffer for job 22
Target Grid is being used
 CPU 0.00 s  wall 0.00 s
NTotSigB2 = 5267
 Inaccurate integrated density:
   Number of electrons =    10
   Numerical integral  =     2.221274269019
   Relative error      =   -77.7872573098 %
Total Number of Grid Points = 8482
 CPU 0.02 s  wall 0.02 s

 Total DFTman time = 0.02 CPUs 0.02 Wall
Fock build time:  0.03 s (CPU) 0.03 s (wall)
DIIS Errors:  Max 1.66E-06 RMS 4.15E-07

Current DIIS subspace size = 11
REM_GRID_RESTART_DIIS = 0

   11     -69.9068204397      4.15E-07  00000
Finding J and K together
 Job number = 22, Threshold = 1.00E-11
Integral type ranges set in mkLRange.C for JobNum: 22  <1-21|1-21>
Storing 7686.90% of integrals
Reusing in-core integrals buffer for job 22
Target Grid is being used
 CPU 0.00 s  wall 0.00 s
NTotSigB2 = 5267
 Inaccurate integrated density:
   Number of electrons =    10
   Numerical integral  =     2.221272292714
   Relative error      =   -77.7872770729 %
Total Number of Grid Points = 8482
 CPU 0.02 s  wall 0.02 s

 Total DFTman time = 0.02 CPUs 0.02 Wall
Fock build time:  0.03 s (CPU) 0.03 s (wall)
DIIS Errors:  Max 1.73E-07 RMS 4.09E-08
 Singularity in Pulay DIIS matrix

Current DIIS subspace size = 12
REM_GRID_RESTART_DIIS = 0

NextCycle: DoReset = 1
   12     -69.9068201861      4.09E-08  00000
Finding J and K together
 Job number = 22, Threshold = 1.00E-11
Integral type ranges set in mkLRange.C for JobNum: 22  <1-21|1-21>
Storing 7686.90% of integrals
Reusing in-core integrals buffer for job 22
Target Grid is being used
 CPU 0.00 s  wall 0.00 s
NTotSigB2 = 5267
 Inaccurate integrated density:
   Number of electrons =    10
   Numerical integral  =     2.221272025946
   Relative error      =   -77.7872797405 %
Total Number of Grid Points = 8482
 CPU 0.02 s  wall 0.02 s

 Total DFTman time = 0.02 CPUs 0.02 Wall
Fock build time:  0.03 s (CPU) 0.03 s (wall)
DIIS Errors:  Max 1.25E-07 RMS 2.59E-08

Current DIIS subspace size = 2
REM_GRID_RESTART_DIIS = 0

   13     -69.9068201264      2.59E-08  00000
Finding J and K together
 Job number = 22, Threshold = 1.00E-11
Integral type ranges set in mkLRange.C for JobNum: 22  <1-21|1-21>
Storing 7686.90% of integrals
Reusing in-core integrals buffer for job 22
Target Grid is being used
 CPU 0.00 s  wall 0.00 s
NTotSigB2 = 5267
 Inaccurate integrated density:
   Number of electrons =    10
   Numerical integral  =     2.221272245404
   Relative error      =   -77.7872775460 %
Total Number of Grid Points = 8482
 CPU 0.02 s  wall 0.02 s

 Total DFTman time = 0.02 CPUs 0.02 Wall
Fock build time:  0.03 s (CPU) 0.03 s (wall)
DIIS Errors:  Max 9.37E-08 RMS 1.63E-08

Current DIIS subspace size = 3
REM_GRID_RESTART_DIIS = 0

   14     -69.9068202001      1.63E-08  00000
Finding J and K together
 Job number = 22, Threshold = 1.00E-11
Integral type ranges set in mkLRange.C for JobNum: 22  <1-21|1-21>
Storing 7686.90% of integrals
Reusing in-core integrals buffer for job 22
Target Grid is being used
 CPU 0.00 s  wall 0.00 s
NTotSigB2 = 5267
 Inaccurate integrated density:
   Number of electrons =    10
   Numerical integral  =     2.221272136043
   Relative error      =   -77.7872786396 %
Total Number of Grid Points = 8482
 CPU 0.02 s  wall 0.02 s

 Total DFTman time = 0.02 CPUs 0.02 Wall
Fock build time:  0.03 s (CPU) 0.03 s (wall)
DIIS Errors:  Max 1.63E-08 RMS 3.19E-09

Current DIIS subspace size = 4
REM_GRID_RESTART_DIIS = 0

   15     -69.9068201607      3.19E-09  00000 Convergence criterion met
 ---------------------------------------
 SCF time:  CPU 0.50 s  wall 0.50 s
 Eold:   -0.0131265 E_qmmm:  -69.919946692928 
 SCF   energy in the final basis set = -69.9199466929
 Total energy in the final basis set = -69.9199466929
Symmetry turned off temporarily
 Analysis of SCF Wavefunction

 --------------------------------------------------------------
                    Orbital Energies (a.u.)
 --------------------------------------------------------------

 Alpha MOs
 -- Occupied --
-17.696  -0.792  -0.328  -0.253  -0.192
 -- Virtual --
  0.097   0.189   0.911   0.945   0.977   1.016   1.162   1.249
  1.865   1.893   1.907   2.312   2.598   3.748
 --------------------------------------------------------------

          Ground-State Mulliken Net Atomic Charges

     Atom                 Charge (a.u.)
  ----------------------------------------
      1 O                    -0.499036
      2 H                     0.231181
      3 H                     0.267855
  ----------------------------------------
  Sum of atomic charges =     0.000000

 -----------------------------------------------------------------
                    Cartesian Multipole Moments
 -----------------------------------------------------------------
    Charge (ESU x 10^10)
                 0.0000
    Dipole Moment (Debye)
         X      -1.2164      Y       0.5708      Z       1.1065
       Tot       1.7406
    Quadrupole Moments (Debye-Ang)
        XX     -10.9479     XY       0.8710     YY      -8.1146
        XZ      -0.1045     YZ      -1.0974     ZZ      -6.3336
    Octapole Moments (Debye-Ang^2)
       XXX     -31.8512    XXY       7.6687    XYY      -9.0066
       YYY      17.3002    XXZ      -8.5894    XYZ      -0.6875
       YYZ      -4.9639    XZZ      -8.3234    YZZ       3.5965
       ZZZ     -18.2902
    Hexadecapole Moments (Debye-Ang^3)
      XXXX     -76.9717   XXXY      23.5369   XXYY     -18.4122
      XYYY      19.7695   YYYY     -37.4959   XXXZ     -26.1223
      XXYZ       5.6724   XYYZ      -5.7552   YYYZ      13.5586
      XXZZ     -20.0288   XYZZ       5.0279   YYZZ     -10.4042
      XZZZ     -21.0762   YZZZ      12.6088   ZZZZ     -42.3681
 -----------------------------------------------------------------
 Calculating analytic gradient of the SCF energy
 Job number = 111, Threshold = 1.00E-11
Integral type ranges set in mkLRange.C for JobNum: 11  <1-21|22-22>
Total number of integrals generated =             651
Finding J and K together
 ML is being used
 Job number = 122, Threshold = 1.00E-11
Integral type ranges set in mkLRange.C for JobNum: 22  <1-21|1-21>
Total number of integrals generated =           25330
 Gradient of Coulomb and Exchange Energy
            1           2           3
    1  -1.4674048   0.3724909   1.0949140
    2   0.1131892   0.7650341  -0.8782233
    3   0.8799330  -0.8780025  -0.0019305
 CPU 0.00 s  wall 0.00 s
NTotSigB2 = 5267
Total Number of Grid Points = 8482
 CPU 0.04 s  wall 0.04 s

 Total DFTman time = 0.04 CPUs 0.04 Wall
 Gradient of SCF Energy
            1           2           3
    1   0.0133954   0.0033281  -0.0167235
    2  -0.0067861   0.0110875  -0.0043013
    3   0.0178694  -0.0105597  -0.0073097
 Max gradient component =       1.787E-02
 RMS gradient           =       1.126E-02
 Gradient time:  CPU 0.08 s  wall 0.08 s
 ------------------------------------------------------------------------------
                     drvman        : Timing summary (seconds)
 ------------------------------------------------------------------------------
     job step          cpu (% of tot)      sys (% of tot)     wall (% of tot)
 ------------------------------------------------------------------------------
 ------------------------------------------------------------------------------
   Grand Totals     0.8079E-01          0.1000E-05          0.7975E-01
 ------------------------------------------------------------------------------
 ----------------------------------------------------
       Standard Nuclear Orientation (Angstroms)
    I     Atom         X            Y            Z
 ----------------------------------------------------
    1      O      -0.765488     1.199327     0.965608
    2      H      -1.662523     1.237958     1.302893
    3      H      -0.707356     1.938296     0.356127
    4      O       1.189341    -0.746877     0.748636
    5      H       0.901161    -1.380631     1.560889
    6      H       0.477263     0.029017     0.842086
 ----------------------------------------------------
 Nuclear Repulsion Energy =     0.0000000000 hartrees
 There are        5 alpha and        5 beta electrons
 Geometry Optimization Parameters
   NAtoms,    NIC,     NZ,  NCons,   NDum,   NFix, NCnnct, MaxDiis
        6      25       0       0       0       0       0       0

 Cartesian Hessian Update
 Hessian Updated using BFGS Update


** GEOMETRY OPTIMIZATION IN DELOCALIZED INTERNAL COORDINATES **
   Searching for a Minimum

   Optimization Cycle:   3

                       Coordinates (Angstroms)
     ATOM              X           Y           Z
      1  O        -0.765488    1.199327    0.965608
      2  H        -1.662523    1.237958    1.302893
      3  H        -0.707356    1.938296    0.356127
      4  O         1.189341   -0.746877    0.748636
      5  H         0.901161   -1.380631    1.560889
      6  H         0.477263    0.029017    0.842086
   Point Group: c1    Number of degrees of freedom:    12


   Energy is    -69.919946693

 Hessian Updated using BFGS Update

 12 Hessian modes will be used to form the next step
  Hessian Eigenvalues:
     0.001775    0.004609    0.066281    0.121753    0.160335    0.161896
     0.199054    0.223516    0.517014    0.532229    0.545138    0.560768

 Minimum Search - Taking Simple RFO Step
 Searching for Lamda that Minimizes Along All modes
 Value Taken    Lamda =  -0.00615890
 Calculated Step too Large.  Step scaled by  0.452811
 Step Taken.  Stepsize is  0.300000

                             Maximum     Tolerance    Cnvgd?
         Gradient           0.012620      0.000300      NO
         Displacement       0.241865      0.001200      NO
         Energy change     -0.013328      0.000001      NO


 New Cartesian Coordinates Obtained by Inverse Iteration

 Displacement from previous Coordinates is:  0.290321
 ----------------------------------------------------
       Standard Nuclear Orientation (Angstroms)
    I     Atom         X            Y            Z
 ----------------------------------------------------
    1      O      -0.717964     1.237808     1.033249
    2      H      -1.645856     1.209404     1.278649
    3      H      -0.738432     1.876753     0.316328
    4      O       1.180030    -0.735411     0.733197
    5      H       0.852663    -1.387438     1.539152
    6      H       0.501959     0.075975     0.875665
 ----------------------------------------------------
 Nuclear Repulsion Energy =     0.0000000000 hartrees
 There are        5 alpha and        5 beta electrons
 opened zmat2 in MoleculeInput::write (get connectivity info)
   **** Step 1: MM calculation on the entire system **** 
 OPLSAA force field loaded.
 getting molecule information
 Reading atomic types. 
Wrote 0 MM bonds to file 840
 Time req'd to get MM system information: 0.0 s (CPU) 0.0 s (wall)

 ------ MM Energies ------
   Ebond:            15.333987667561
   Eangle:            0.389944988606
   EUreyBrad:         0.693798589325
   Eimptors:          0.000000000000
   Etorsion:          0.000000000000
   Evdw:              1.690878541120
   Ecoulomb:        -10.136359530099
   Etot:              7.972250256514 Kcal/mol (      0.012704589532 hartree)
 -------------------------
 Time req'd to calc MM energy: 0.0 s (CPU) 0.0 s (wall)
 Call to compute MM gradient 
 OPLSAA force field loaded.
 getting molecule information
 Reading atomic types. 
Wrote 0 MM bonds to file 840
 Time req'd to get MM system information: 0.0 s (CPU) 0.0 s (wall)
 Time req'd to calc MM gradient: 0.0 s (CPU) 0.0 s (wall)
   **** Step 2: MM calculation on the model system **** 
 In set_model_system 
 set_model_system n_atoms = 6
 1 Reading atomic types. 
 n_atoms_model: 3
 n_qm_bonds = 2
 ----------------------------------------------------
       Standard Nuclear Orientation (Angstroms)
    I     Atom         X            Y            Z
 ----------------------------------------------------
    1      O       1.180030    -0.735411     0.733197
    2      H       0.852663    -1.387438     1.539152
    3      H       0.501959     0.075975     0.875665
 ----------------------------------------------------
 Nuclear Repulsion Energy =     8.1835526764 hartrees
 There are        5 alpha and        5 beta electrons
 OPLSAA force field loaded.
 getting molecule information
 Reading atomic types. 
Wrote 0 MM bonds to file 848
Finding angles...
Finding torsions...
Finding improper torsions...
 Time req'd to get MM system information: 0.0 s (CPU) 0.0 s (wall)

 ------ MM Energies ------
   Ebond:            15.323252171441
   Eangle:            0.257235924042
   EUreyBrad:         0.653638252277
   Eimptors:          0.000000000000
   Etorsion:          0.000000000000
   Evdw:              0.000000000000
   Ecoulomb:          0.000000000000
   Etot:             16.234126347759 Kcal/mol (      0.025870727213 hartree)
 -------------------------
 Eold:    0.0127046 mm_energy:    0.0258707 Enew:   -0.0131661
 Time req'd to calc MM energy: 0.0 s (CPU) 0.0 s (wall)
 Call to compute MM gradient 
 OPLSAA force field loaded.
 getting molecule information
 Reading atomic types. 
Wrote 0 MM bonds to file 848
Finding angles...
Finding torsions...
Finding improper torsions...
 Time req'd to get MM system information: 0.0 s (CPU) 0.0 s (wall)
 Time req'd to calc MM gradient: 0.0 s (CPU) 0.0 s (wall)
   **** Step 3: QM calculation on the model system **** 
 Requested basis set is 6-31G(d)
 There are 8 shells and 19 basis functions
 Applying Cartesian multipole field
    Component          Value
    ---------          -----
     (2,0,0)        1.00000E-10
     (0,2,0)        2.00000E-10
     (0,0,2)       -3.00000E-10
 Nucleus-field energy     =     0.0000000008 hartrees
 Job number = 2, Threshold = 1.00E-11
Integral type ranges set in mkLRange.C for JobNum: 2  <1-21|1-21>
Symmetry turned off temporarily
Total number of integrals generated =            3571
Symmetry turned back on
 A cutoff of  1.0D-11 yielded     36 shell pairs
 There are       217 function pairs
 Job number = 11, Threshold = 1.00E-11
Integral type ranges set in mkLRange.C for JobNum: 11  <1-21|22-22>
Total number of integrals generated =             651
 Smallest overlap matrix eigenvalue = 2.69E-02
 Multipole matrices computed through 2nd order
 Guess from superposition of atomic densities
 Warning:  Energy on first SCF cycle will be non-variational
 A restricted hybrid HF-DFT SCF calculation will be
 performed using Pulay DIIS extrapolation
 Exchange:     0.2500 Hartree-Fock + 0.7500 PBE
 Correlation:  1.0000 PBE
 Using SG-1 standard quadrature grid
 SCF converges when DIIS error is below 1.0E-08
Finding J and K together
 Job number = 22, Threshold = 1.00E-11
Integral type ranges set in mkLRange.C for JobNum: 22  <1-21|1-21>
Storing 7686.90% of integrals
Total number of integrals generated =           25981
Target Grid is being used
 CPU 0.00 s  wall 0.00 s
NTotSigB2 = 5267
 Inaccurate integrated density:
   Number of electrons =    10
   Numerical integral  =     2.694015509401
   Relative error      =   -73.0598449060 %
Total Number of Grid Points = 8482
 CPU 0.03 s  wall 0.03 s

 Total DFTman time = 0.03 CPUs 0.03 Wall
Fock build time:  0.05 s (CPU) 0.05 s (wall)
DIIS Errors:  Max 8.50E-01 RMS 1.63E-01

Current DIIS subspace size = 1
REM_GRID_RESTART_DIIS = 0

 ---------------------------------------
  Cycle       Energy         DIIS Error
 ---------------------------------------
    1     -69.8333143513      1.63E-01  00000
Finding J and K together
 Job number = 22, Threshold = 1.00E-11
Integral type ranges set in mkLRange.C for JobNum: 22  <1-21|1-21>
Storing 7686.90% of integrals
Reusing in-core integrals buffer for job 22
Target Grid is being used
 CPU 0.00 s  wall 0.00 s
NTotSigB2 = 5267
 Inaccurate integrated density:
   Number of electrons =    10
   Numerical integral  =     1.872014105031
   Relative error      =   -81.2798589497 %
Total Number of Grid Points = 8482
 CPU 0.03 s  wall 0.03 s

 Total DFTman time = 0.03 CPUs 0.03 Wall
Fock build time:  0.03 s (CPU) 0.03 s (wall)
DIIS Errors:  Max 2.42E-01 RMS 4.99E-02

Current DIIS subspace size = 2
REM_GRID_RESTART_DIIS = 0

    2     -69.7373148009      4.99E-02  00000
Finding J and K together
 Job number = 22, Threshold = 1.00E-11
Integral type ranges set in mkLRange.C for JobNum: 22  <1-21|1-21>
Storing 7686.90% of integrals
Reusing in-core integrals buffer for job 22
Target Grid is being used
 CPU 0.00 s  wall 0.00 s
NTotSigB2 = 5267
 Inaccurate integrated density:
   Number of electrons =    10
   Numerical integral  =     2.458672308561
   Relative error      =   -75.4132769144 %
Total Number of Grid Points = 8482
 CPU 0.02 s  wall 0.02 s

 Total DFTman time = 0.02 CPUs 0.02 Wall
Fock build time:  0.03 s (CPU) 0.03 s (wall)
DIIS Errors:  Max 2.03E-01 RMS 3.56E-02

Current DIIS subspace size = 3
REM_GRID_RESTART_DIIS = 0

    3     -69.9589739944      3.56E-02  00000
Finding J and K together
 Job number = 22, Threshold = 1.00E-11
Integral type ranges set in mkLRange.C for JobNum: 22  <1-21|1-21>
Storing 7686.90% of integrals
Reusing in-core integrals buffer for job 22
Target Grid is being used
 CPU 0.00 s  wall 0.00 s
NTotSigB2 = 5267
 Inaccurate integrated density:
   Number of electrons =    10
   Numerical integral  =     2.140241007591
   Relative error      =   -78.5975899241 %
Total Number of Grid Points = 8482
 CPU 0.03 s  wall 0.02 s

 Total DFTman time = 0.03 CPUs 0.02 Wall
Fock build time:  0.03 s (CPU) 0.03 s (wall)
DIIS Errors:  Max 9.67E-02 RMS 1.73E-02

Current DIIS subspace size = 4
REM_GRID_RESTART_DIIS = 0

    4     -69.8769818031      1.73E-02  00000
Finding J and K together
 Job number = 22, Threshold = 1.00E-11
Integral type ranges set in mkLRange.C for JobNum: 22  <1-21|1-21>
Storing 7686.90% of integrals
Reusing in-core integrals buffer for job 22
Target Grid is being used
 CPU 0.00 s  wall 0.00 s
NTotSigB2 = 5267
 Inaccurate integrated density:
   Number of electrons =    10
   Numerical integral  =     2.224174838313
   Relative error      =   -77.7582516169 %
Total Number of Grid Points = 8482
 CPU 0.02 s  wall 0.02 s

 Total DFTman time = 0.02 CPUs 0.02 Wall
Fock build time:  0.03 s (CPU) 0.03 s (wall)
DIIS Errors:  Max 6.14E-03 RMS 1.54E-03

Current DIIS subspace size = 5
REM_GRID_RESTART_DIIS = 0

    5     -69.9135650758      1.54E-03  00000
Finding J and K together
 Job number = 22, Threshold = 1.00E-11
Integral type ranges set in mkLRange.C for JobNum: 22  <1-21|1-21>
Storing 7686.90% of integrals
Reusing in-core integrals buffer for job 22
Target Grid is being used
 CPU 0.00 s  wall 0.00 s
NTotSigB2 = 5267
 Inaccurate integrated density:
   Number of electrons =    10
   Numerical integral  =     2.233988950843
   Relative error      =   -77.6601104916 %
Total Number of Grid Points = 8482
 CPU 0.02 s  wall 0.02 s

 Total DFTman time = 0.02 CPUs 0.02 Wall
Fock build time:  0.03 s (CPU) 0.03 s (wall)
DIIS Errors:  Max 1.64E-03 RMS 3.84E-04

Current DIIS subspace size = 6
REM_GRID_RESTART_DIIS = 0

    6     -69.9144428591      3.84E-04  00000
Finding J and K together
 Job number = 22, Threshold = 1.00E-11
Integral type ranges set in mkLRange.C for JobNum: 22  <1-21|1-21>
[...]
  H      2    1     -0.84595611      0.68491276      0.76725273
  H      3    1     -1.34005480      2.10751440      0.64981094
  O      4    8      0.61315325     -0.88285531      0.76717803
  H      5    1      0.72375256     -1.29167234      1.72149618
  H      6    1      0.90898700      0.07094561      0.84071560
[GEOCONV]
energy
      -69.8422769321
      -69.9066188990
      -69.9199466929
      -69.9274714557
      -69.9469644700
      -69.9490874435
      -69.9447923098
      -69.9394717842
      -69.9366440809
      -69.9329424554
      -69.9266509142
      -69.9217972620
      -69.9195158629
      -69.9201261267
      -69.9169646990
      -69.9152690968
      -69.9162698663
      -69.9152948199
      -69.9124346606
      -69.9102874814
      -69.9242319163
      -69.9033113512
      -69.9029890360
      -69.8962638876
      -69.9130384402
      -69.9066312303
      -69.9137897589
      -69.9164502003
      -69.9125831807
      -69.9149966319
      -69.9160955308
      -69.9159776508
      -69.9160322948
      -69.9164879262
      -69.9169947552
      -69.9184664715
      -69.9186783259
      -69.9184349858
      -69.9184208615
      -69.9181739745
      -69.9178113353
      -69.9169361795
      -69.9154251193
      -69.9163040791
      -69.9178054152
      -69.9174766515
      -69.9172028402
      -69.9173222501
      -69.9172880501
      -69.9172784837
max-force
        0.1134678650
        0.0207531085
        0.0126197360
        0.0122332614
        0.0113488851
        0.0112424089
        0.0120384238
        0.0033886086
        0.0034709880
        0.0041530380
        0.0035418400
        0.0038158935
        0.0054608409
        0.0033679623
        0.0016671122
        0.0031803892
        0.0050696067
        0.0076705929
        0.0094441001
        0.0131448506
        0.0404585905
        0.0514122779
        0.0892143950
        0.1145203727
        0.0725231269
        0.0546079015
        0.0040673625
        0.0086872363
        0.0106050316
        0.0031771370
        0.0038642665
        0.0019806649
        0.0012528846
        0.0015052099
        0.0019574041
        0.0040497099
        0.0074980920
        0.0032935781
        0.0019671111
        0.0012833334
        0.0029402356
        0.0051802686
        0.0049206255
        0.0023051966
        0.0082659785
        0.0013707747
        0.0011006684
        0.0020552544
        0.0018910926
        0.0015379231
max-step
        0.1643776254
        0.2737161042
        0.2418648324
        0.2106785283
        0.1670169865
        0.1931043828
        0.0859336718
        0.0971301385
        0.1269306233
        0.1756004211
        0.1603611207
        0.1488578809
        0.1210593108
        0.0700530356
        0.0498173524
        0.1035309351
        0.1867787016
        0.1816994199
        0.1801017373
        0.1547230756
        0.1842811537
        0.1900856660
        0.1630289664
        0.1588148100
        0.1505784297
        0.0823722198
        0.2421631753
        0.0962264881
        0.0666895321
        0.0827510438
        0.0111567826
        0.0641570104
        0.0564242006
        0.0521041976
        0.0671445737
        0.0500814183
        0.0192658354
        0.0454531272
        0.0221040534
        0.0391395757
        0.0805285869
        0.1852139990
        0.0639989829
        0.0500674933
        0.0309098630
        0.0221159417
        0.0219422298
        0.0116017362
        0.0476569911
        0.0552385614
[GEOMETRIES] (XYZ)
  6
Step 1
  O     -0.79090900      1.14978000      0.90745300
  H     -1.62804400      1.24532000      1.37637200
  H     -0.66934600      1.91370500      0.33100200
  O      1.17800100     -0.68622700      0.84130600
  H      0.87000100     -1.33709100      1.46821500
  H      0.47269600     -0.00839700      0.85189200
  6
Step 2
  O     -0.79716351      1.18185587      0.91852793
  H     -1.65278909      1.26580682      1.34341891
  H     -0.70608334      1.94721756      0.34695976
  O      1.20838596     -0.72467438      0.79324412
  H      0.90749804     -1.41379483      1.53334992
  H      0.47255095      0.02067897      0.84073936
  6
Step 3
  O     -0.76548752      1.19932733      0.96560836
  H     -1.66252300      1.23795849      1.30289307
  H     -0.70735602      1.93829572      0.35612744
  O      1.18934111     -0.74687737      0.74863591
  H      0.90116103     -1.38063093      1.56088899
  H      0.47726340      0.02901676      0.84208622
  6
Step 4
  O     -0.71796395      1.23780795      1.03324923
  H     -1.64585640      1.20940404      1.27864931
  H     -0.73843249      1.87675255      0.31632833
  O      1.18003008     -0.73541139      0.73319685
  H      0.85266269     -1.38743812      1.53915160
  H      0.50195907      0.07597497      0.87566468
  6
Step 5
  O     -0.69747423      1.23562069      1.05072938
  H     -1.63934864      1.16130022      1.24356211
  H     -0.71489704      1.87824646      0.33220520
  O      1.11204586     -0.74741826      0.68547625
  H      0.87013071     -1.36636257      1.57530026
  H      0.50194234      0.11570347      0.88896680
  6
Step 6
  O     -0.66431920      1.26235812      1.10463729
  H     -1.60886343      1.10094255      1.20916030
  H     -0.70213933      1.82126962      0.32003976
  O      1.04401437     -0.73452738      0.66005663
  H      0.84553588     -1.33361993      1.56873438
  H      0.51817072      0.16066701      0.91361163
  6
Step 7
  O     -0.64677448      1.21835524      1.06049362
  H     -1.56723221      1.01193762      1.25654423
  H     -0.68201972      1.82256299      0.30982070
  O      0.99598850     -0.71181557      0.64956417
  H      0.75554491     -1.27967990      1.56480184
  H      0.57689200      0.21572962      0.93501544
  6
Step 8
  O     -0.66850680      1.26181415      1.08365831
  H     -1.59413073      1.05213980      1.23611277
  H     -0.69583109      1.82824814      0.30651946
  O      1.01305846     -0.73280570      0.66995509
  H      0.80930810     -1.31497356      1.55420652
  H      0.56850106      0.18266717      0.92578785
  6
Step 9
  O     -0.66478101      1.29462384      1.10581094
  H     -1.58115633      1.03172788      1.23202666
  H     -0.71407227      1.80467195      0.29196018
  O      1.00933281     -0.73215603      0.67289899
  H      0.77967814     -1.31765291      1.54222955
  H      0.60339765      0.19587528      0.93131367
  6
Step 10
  O     -0.67581061      1.33382590      1.11842829
  H     -1.56948569      0.99116519      1.21816572
  H     -0.74117534      1.82193146      0.29332632
  O      0.98251458     -0.75459133      0.67386991
  H      0.76096798     -1.31667365      1.55121197
  H      0.67538807      0.20143242      0.92123779
  6
Step 11
  O     -0.69524823      1.36002125      1.11668506
  H     -1.55393435      0.93353325      1.20006644
  H     -0.78419990      1.88109668      0.31540192
  O      0.95140718     -0.79199167      0.67515836
  H      0.72804087     -1.29718367      1.58136900
  H      0.78633342      0.19161416      0.88755921
  6
Step 12
  O     -0.71278807      1.38264246      1.13169281
  H     -1.53133744      0.87796017      1.15387105
  H     -0.81725067      1.93343098      0.35277557
  O      0.90026301     -0.82346150      0.67624616
  H      0.71699473     -1.26431769      1.62033071
  H      0.87651744      0.17083558      0.84132369
  6
Step 13
  O     -0.73970214      1.40241716      1.14259696
  H     -1.52686650      0.85264520      1.09552546
  H     -0.84315694      1.99950874      0.39765721
  O      0.85897469     -0.86195330      0.68532060
  H      0.75301928     -1.24792430      1.66033123
  H      0.93013061      0.13239651      0.79480855
  6
Step 14
  O     -0.76782330      1.43404696      1.16032850
  H     -1.52792308      0.85702663      1.05010705
  H     -0.85794933      2.03998985      0.42028569
  O      0.85962119     -0.90114640      0.69198965
  H      0.80160347     -1.25188639      1.68087799
  H      0.92487005      0.09905934      0.77265111
  6
Step 15
  O     -0.77492983      1.44105462      1.15632864
  H     -1.50994649      0.83490722      1.03742704
  H     -0.87839424      2.06774623      0.43739083
  O      0.83983198     -0.91054002      0.70035322
  H      0.79574395     -1.24095000      1.69004891
  H      0.96009363      0.08487195      0.75469136
  6
Step 16
  O     -0.77704308      1.45928940      1.16922523
  H     -1.46831577      0.80752352      1.03136640
  H     -0.89563048      2.06420480      0.43541257
  O      0.82325990     -0.90565074      0.70216541
  H      0.77307977     -1.23313345      1.68965397
  H      0.97704866      0.08485646      0.74841641
  6
Step 17
  O     -0.78494625      1.50900960      1.18455357
  H     -1.36567854      0.76035389      1.02674320
  H     -0.94280668      2.06501425      0.42129959
  O      0.80478216     -0.90128466      0.70368576
  H      0.74172292     -1.24525765      1.68401791
  H      0.97932539      0.08925458      0.75593997
  6
Step 18
  O     -0.81321965      1.56337581      1.20608978
  H     -1.17343097      0.69941788      0.98744636
  H     -1.02665021      2.07355693      0.42502110
  O      0.73006011     -0.88649099      0.71623385
  H      0.71319007     -1.25288361      1.68671965
  H      1.00244967      0.08011398      0.75472925
  6
Step 19
  O     -0.84600564      1.59905097      1.21327175
  H     -0.95965511      0.67777951      0.96026912
  H     -1.12431189      2.06699392      0.42614112
  O      0.65522641     -0.86109689      0.73154077
  H      0.68386713     -1.27564799      1.67959487
  H      1.02327810      0.07001049      0.76542237
  6
Step 20
  O     -0.83783231      1.61146991      1.23635193
  H     -0.68012343      0.68977424      1.00107243
  H     -1.15369253      1.87730810      0.36860958
  O      0.51298702     -0.73878223      0.73263278
  H      0.62915843     -1.30223937      1.60485985
  H      0.96190182      0.13955935      0.83271343
  6
Step 21
  O     -0.84357483      1.59465026      1.19549789
  H     -0.66944482      0.64556955      0.98908267
  H     -1.11690585      1.91944850      0.39038377
  O      0.43741135     -0.73380231      0.70692056
  H      0.71103436     -1.29686933      1.62138956
  H      0.91387880      0.14809333      0.87296553
  6
Step 22
  O     -0.83493853      1.59219210      1.19370689
  H     -0.72452156      0.64478513      0.98749234
  H     -1.14039144      2.00023162      0.39360330
  O      0.53492873     -0.77389468      0.71889693
  H      0.71018350     -1.28755100      1.63384405
  H      0.88713829      0.10132683      0.84869649
  6
Step 23
  O     -0.80624506      1.54259543      1.20988734
  H     -0.78052273      0.68267376      1.00363841
  H     -1.15592668      1.97964377      0.38560734
  O      0.53960725     -0.78460222      0.73072086
  H      0.64775892     -1.26262816      1.62584529
  H      0.98772730      0.11940741      0.82054076
  6
Step 24
  O     -0.79045776      1.61345365      1.27847521
  H     -0.80827535      0.59640255      0.98599541
  H     -1.16080447      1.97994262      0.35320292
  O      0.55065195     -0.81447245      0.73771163
  H      0.61397927     -1.25170450      1.62435037
  H      1.02730536      0.15346812      0.79650446
  6
Step 25
  O     -0.82301066      1.62708386      1.21044949
  H     -0.80900159      0.61685119      0.99080515
  H     -1.11469149      1.97962514      0.40052652
  O      0.55688813     -0.79771275      0.71174858
  H      0.67895043     -1.27263058      1.64008071
  H      0.94326418      0.12387313      0.82262954
  6
Step 26
  O     -0.81841361      1.54740119      1.20915689
  H     -0.76002441      0.66374598      0.98583867
  H     -1.16268748      1.97943901      0.41201561
  O      0.54429003     -0.76492468      0.71970963
  H      0.61720086     -1.24821334      1.65168523
  H      1.01203361      0.09964184      0.79783398
  6
Step 27
  O     -0.83315772      1.58583259      1.21131878
  H     -0.75377746      0.65031367      0.96939324
  H     -1.16239563      2.00230751      0.40871589
  O      0.54381274     -0.79024378      0.71981764
  H      0.66079036     -1.27055329      1.65182950
  H      0.97712670      0.09943330      0.81516495
  6
Step 28
  O     -0.81682028      1.58005382      1.20959929
  H     -0.88192469      0.63656359      0.97323134
  H     -1.10505390      2.03134362      0.41101593
  O      0.57871706     -0.81742905      0.71195881
  H      0.69880949     -1.25710985      1.66153685
  H      0.95867132      0.10366785      0.80889778
  6
Step 29
  O     -0.80470650      1.59225869      1.20489549
  H     -0.86086954      0.64957002      0.99772092
  H     -1.10650961      1.98042276      0.39883608
  O      0.57440516     -0.79886065      0.71767203
  H      0.68040972     -1.26821589      1.63313073
  H      0.94966978      0.12191508      0.82398475
  6
Step 30
  O     -0.81357238      1.58804047      1.20236052
  H     -0.85034931      0.65192356      0.98347932
  H     -1.12392521      2.01571334      0.40274638
  O      0.57606649     -0.80845996      0.71826635
  H      0.69589352     -1.27904648      1.64710263
  H      0.94828589      0.10891907      0.82228480
  6
Step 31
  O     -0.80632252      1.58687022      1.19996364
  H     -0.89413928      0.64646397      0.98308889
  H     -1.10799075      2.03093555      0.40437479
  O      0.58831578     -0.81901238      0.71709244
  H      0.71192478     -1.27736307      1.65117311
  H      0.94061099      0.10919571      0.82054713
  6
Step 32
  O     -0.80348422      1.58734578      1.19777386
  H     -0.90004319      0.64948442      0.98277214
  H     -1.10840622      2.03192150      0.40469324
  O      0.59020438     -0.82008232      0.71857835
  H      0.71602453     -1.28086800      1.64999487
  H      0.93810371      0.10928863      0.82242754
  6
Step 33
  O     -0.79151990      1.58625392      1.18997540
  H     -0.93399362      0.65560799      0.97815742
  H     -1.10607155      2.04427173      0.40884026
  O      0.59971107     -0.82774334      0.72260313
  H      0.73412440     -1.28897297      1.65050715
  H      0.93014860      0.10767267      0.82615664
  6
Step 34
  O     -0.77776507      1.58417691      1.18118564
  H     -0.96385202      0.66065515      0.97300172
  H     -1.10674482      2.05676017      0.41415388
  O      0.60858541     -0.83507712      0.72536399
  H      0.74978583     -1.29579462      1.65190373
  H      0.92238967      0.10636952      0.83063104
  6
Step 35
  O     -0.75783404      1.58010450      1.16734867
  H     -0.99142438      0.66837124      0.96318997
  H     -1.11739874      2.07320523      0.42507112
  O      0.61911961     -0.84421344      0.72857016
  H      0.76430077     -1.30306646      1.65516727
  H      0.91563578      0.10268893      0.83689280
  6
Step 36
  O     -0.72748362      1.57566551      1.14677623
  H     -1.02695576      0.67599550      0.95631060
  H     -1.12968274      2.08845038      0.43850176
  O      0.63583439     -0.85456104      0.72955091
  H      0.77751188     -1.31081827      1.65748312
  H      0.90317485      0.10235793      0.84761738
  6
Step 37
  O     -0.71285109      1.57298395      1.13263738
  H     -1.01059435      0.68151510      0.94852669
  H     -1.15618469      2.09207628      0.45232577
  O      0.63918972     -0.85681470      0.72872702
  H      0.76906801     -1.31145154      1.66093676
  H      0.90377140      0.09878092      0.85308639
  6
Step 38
  O     -0.71959989      1.57411005      1.13558686
  H     -1.00555994      0.67623692      0.95175095
  H     -1.15150972      2.08846194      0.45295810
  O      0.64137558     -0.85609557      0.72574704
  H      0.75887297     -1.30441994      1.66340764
  H      0.90882001      0.09879659      0.84678940
  6
Step 39
  O     -0.70855912      1.57240199      1.12177600
  H     -1.02369318      0.67965925      0.93694821
  H     -1.17100638      2.11251470      0.47451402
  O      0.66263921     -0.87233713      0.72705719
  H      0.75602371     -1.30243694      1.67676017
  H      0.91699475      0.08728814      0.83918441
  6
Step 40
  O     -0.70962523      1.57421449      1.12178316
  H     -1.01199622      0.67993793      0.93404641
  H     -1.17774776      2.10985075      0.47760868
  O      0.66051307     -0.87165878      0.72832087
  H      0.75020634     -1.30190917      1.67781760
  H      0.92104880      0.08665478      0.83666328
  6
Step 41
  O     -0.70207289      1.57600532      1.11475510
  H     -0.99447800      0.68215910      0.92025462
  H     -1.19845953      2.11088884      0.49180763
  O      0.65751824     -0.87342203      0.73293289
  H      0.74404148     -1.30242052      1.68181836
  H      0.92584970      0.08387929      0.83467141
  6
Step 42
  O     -0.69126200      1.57916546      1.10176115
  H     -0.95222337      0.68208703      0.88436728
  H     -1.24107343      2.11789528      0.52614890
  O      0.64778541     -0.87848841      0.74295357
  H      0.73217764     -1.29871913      1.69410304
  H      0.93699475      0.07514978      0.82690606
  6
Step 43
  O     -0.67865888      1.58665817      1.08877053
  H     -0.85421235      0.67569812      0.81698404
  H     -1.30724366      2.11423602      0.58186017
  O      0.60702478     -0.87620611      0.76285605
  H      0.71545961     -1.28862285      1.71086735
  H      0.95002950      0.06532666      0.81490186
  6
Step 44
  O     -0.67695478      1.58345239      1.09439395
  H     -0.88452236      0.67687313      0.84334250
  H     -1.27337686      2.10162682      0.55621257
  O      0.60848246     -0.86859309      0.75474922
  H      0.73169124     -1.29365573      1.69799341
  H      0.92707930      0.07738647      0.82954836
  6
Step 45
  O     -0.65046020      1.58310729      1.07299977
  H     -0.88511867      0.68293272      0.83527248
  H     -1.29218926      2.10515403      0.57030582
  O      0.61518093     -0.87242604      0.75330209
  H      0.73936244     -1.30171369      1.69837363
  H      0.90562377      0.08003569      0.84598621
  6
Step 46
  O     -0.66681700      1.58623541      1.08240924
  H     -0.87646541      0.67929627      0.83263384
  H     -1.28746745      2.10753733      0.56884172
  O      0.61322885     -0.87456550      0.75431354
  H      0.73625840     -1.29759018      1.70186105
  H      0.91366161      0.07617668      0.83618062
  6
Step 47
  O     -0.66161803      1.58715269      1.07853183
  H     -0.86476216      0.67808578      0.82401528
  H     -1.29569412      2.10498383      0.57761026
  O      0.60920409     -0.87397991      0.75619588
  H      0.73351925     -1.29547935      1.70351864
  H      0.91174997      0.07632696      0.83636811
  6
Step 48
  O     -0.65214424      1.58786480      1.07007259
  H     -0.85786688      0.67805016      0.81539680
  H     -1.30515840      2.10366098      0.58922158
  O      0.61001084     -0.87530020      0.75692759
  H      0.73093220     -1.29425947      1.70586191
  H      0.90662548      0.07707373      0.83875951
  6
Step 49
  O     -0.64846585      1.58752484      1.06599675
  H     -0.85629044      0.67788804      0.81137870
  H     -1.30852749      2.10294074      0.59536096
  O      0.61079468     -0.87560507      0.75722090
  H      0.72853061     -1.29269070      1.70739328
  H      0.90635749      0.07703215      0.83888941
  6
Step 50
  O     -0.63751593      1.58722419      1.04969376
  H     -0.84959268      0.67965644      0.79209213
  H     -1.32361261      2.10372810      0.62057995
  O      0.61220707     -0.87831578      0.76069403
  H      0.72322394     -1.28998361      1.71418656
  H      0.90768921      0.07478066      0.83899357

======= END OF MOLDEN-FORMATTED INPUT FILE =======


 Q-Chem fatal error occurred in module 0, line  440:

 Maximum optimization cycles reached

 Fri Mar  7 19:02:24 2014
Reading symbols for shared libraries ....... done
(gdb) (gdb) 