15
 ch3oh_ch3sch3_cs, factor= 0.9, energy= -4.97
 S         0.691831       -1.304247        0.000000
 C        -0.486207       -1.387475        1.360941
 C        -0.486207       -1.387475       -1.360941
 H        -1.035340       -2.326136        1.332261
 H         0.080605       -1.338205        2.287319
 H        -1.175349       -0.546625        1.319382
 H        -1.035340       -2.326136       -1.332261
 H        -1.175349       -0.546625       -1.319382
 H         0.080605       -1.338205       -2.287319
 O        -0.382870        1.542737        0.000000
 C         0.360183        2.747787        0.000000
 H        -0.353918        3.566533        0.000000
 H         0.990499        2.847338        0.886188
 H         0.990499        2.847338       -0.886188
 H         0.250069        0.811120        0.000000
15
 ch3oh_ch3sch3_cs, factor= 0.95, energy= -5.59
 S         0.691831       -1.304247        0.000000
 C        -0.486207       -1.387475        1.360941
 C        -0.486207       -1.387475       -1.360941
 H        -1.035340       -2.326136        1.332261
 H         0.080605       -1.338205        2.287319
 H        -1.175349       -0.546625        1.319382
 H        -1.035340       -2.326136       -1.332261
 H        -1.175349       -0.546625       -1.319382
 H         0.080605       -1.338205       -2.287319
 O        -0.407412        1.660258        0.000000
 C         0.335640        2.865307        0.000000
 H        -0.378460        3.684054        0.000000
 H         0.965957        2.964858        0.886188
 H         0.965957        2.964858       -0.886188
 H         0.225527        0.928640        0.000000
15
 ch3oh_ch3sch3_cs, factor= 1.0, energy= -5.69
 S         0.691831       -1.304247        0.000000
 C        -0.486207       -1.387475        1.360941
 C        -0.486207       -1.387475       -1.360941
 H        -1.035340       -2.326136        1.332261
 H         0.080605       -1.338205        2.287319
 H        -1.175349       -0.546625        1.319382
 H        -1.035340       -2.326136       -1.332261
 H        -1.175349       -0.546625       -1.319382
 H         0.080605       -1.338205       -2.287319
 O        -0.431955        1.777778        0.000000
 C         0.311098        2.982827        0.000000
 H        -0.403002        3.801574        0.000000
 H         0.941415        3.082379        0.886188
 H         0.941415        3.082379       -0.886188
 H         0.200985        1.046161        0.000000
15
 ch3oh_ch3sch3_cs, factor= 1.05, energy= -5.49
 S         0.691831       -1.304247        0.000000
 C        -0.486207       -1.387475        1.360941
 C        -0.486207       -1.387475       -1.360941
 H        -1.035340       -2.326136        1.332261
 H         0.080605       -1.338205        2.287319
 H        -1.175349       -0.546625        1.319382
 H        -1.035340       -2.326136       -1.332261
 H        -1.175349       -0.546625       -1.319382
 H         0.080605       -1.338205       -2.287319
 O        -0.456497        1.895298        0.000000
 C         0.286556        3.100348        0.000000
 H        -0.427545        3.919094        0.000000
 H         0.916873        3.199899        0.886188
 H         0.916873        3.199899       -0.886188
 H         0.176442        1.163681        0.000000
15
 ch3oh_ch3sch3_cs, factor= 1.1, energy= -5.12
 S         0.691831       -1.304247        0.000000
 C        -0.486207       -1.387475        1.360941
 C        -0.486207       -1.387475       -1.360941
 H        -1.035340       -2.326136        1.332261
 H         0.080605       -1.338205        2.287319
 H        -1.175349       -0.546625        1.319382
 H        -1.035340       -2.326136       -1.332261
 H        -1.175349       -0.546625       -1.319382
 H         0.080605       -1.338205       -2.287319
 O        -0.481039        2.012819        0.000000
 C         0.262013        3.217868        0.000000
 H        -0.452087        4.036615        0.000000
 H         0.892330        3.317419        0.886188
 H         0.892330        3.317419       -0.886188
 H         0.151900        1.281201        0.000000
15
 ch3oh_ch3sch3_cs, factor= 1.25, energy= -3.74
 S         0.691831       -1.304247        0.000000
 C        -0.486207       -1.387475        1.360941
 C        -0.486207       -1.387475       -1.360941
 H        -1.035340       -2.326136        1.332261
 H         0.080605       -1.338205        2.287319
 H        -1.175349       -0.546625        1.319382
 H        -1.035340       -2.326136       -1.332261
 H        -1.175349       -0.546625       -1.319382
 H         0.080605       -1.338205       -2.287319
 O        -0.554666        2.365380        0.000000
 C         0.188386        3.570429        0.000000
 H        -0.525714        4.389176        0.000000
 H         0.818703        3.669981        0.886188
 H         0.818703        3.669981       -0.886188
 H         0.078273        1.633762        0.000000
15
 ch3oh_ch3sch3_cs, factor= 1.5, energy= -1.98
 S         0.691831       -1.304247        0.000000
 C        -0.486207       -1.387475        1.360941
 C        -0.486207       -1.387475       -1.360941
 H        -1.035340       -2.326136        1.332261
 H         0.080605       -1.338205        2.287319
 H        -1.175349       -0.546625        1.319382
 H        -1.035340       -2.326136       -1.332261
 H        -1.175349       -0.546625       -1.319382
 H         0.080605       -1.338205       -2.287319
 O        -0.677378        2.952981        0.000000
 C         0.065675        4.158031        0.000000
 H        -0.648426        4.976778        0.000000
 H         0.695991        4.257583        0.886188
 H         0.695991        4.257583       -0.886188
 H        -0.044439        2.221364        0.000000
15
 ch3oh_ch3sch3_cs, factor= 2.0, energy= -0.63
 S         0.691831       -1.304247        0.000000
 C        -0.486207       -1.387475        1.360941
 C        -0.486207       -1.387475       -1.360941
 H        -1.035340       -2.326136        1.332261
 H         0.080605       -1.338205        2.287319
 H        -1.175349       -0.546625        1.319382
 H        -1.035340       -2.326136       -1.332261
 H        -1.175349       -0.546625       -1.319382
 H         0.080605       -1.338205       -2.287319
 O        -0.922801        4.128185        0.000000
 C        -0.179749        5.333235        0.000000
 H        -0.893849        6.151981        0.000000
 H         0.450568        5.432786        0.886188
 H         0.450568        5.432786       -0.886188
 H        -0.289862        3.396568        0.000000
