9
 ch3sh_h2o_cs, factor= 0.9, energy= -2.11
 S         0.678036        0.958194        0.000000
 C        -1.097422        1.314396        0.000000
 H         0.557489       -0.371244        0.000000
 H        -1.578466        0.919018        0.889111
 H        -1.198372        2.396287        0.000000
 H        -1.578466        0.919018       -0.889111
 O        -0.012302       -2.371041        0.000000
 H         0.132600       -2.945321       -0.754927
 H         0.132600       -2.945321        0.754927
9
 ch3sh_h2o_cs, factor= 0.95, energy= -2.33
 S         0.678036        0.958194        0.000000
 C        -1.097422        1.314396        0.000000
 H         0.557489       -0.371244        0.000000
 H        -1.578466        0.919018        0.889111
 H        -1.198372        2.396287        0.000000
 H        -1.578466        0.919018       -0.889111
 O        -0.043957       -2.482141        0.000000
 H         0.100945       -3.056421       -0.754927
 H         0.100945       -3.056421        0.754927
9
 ch3sh_h2o_cs, factor= 1.0, energy= -2.36
 S         0.678036        0.958194        0.000000
 C        -1.097422        1.314396        0.000000
 H         0.557489       -0.371244        0.000000
 H        -1.578466        0.919018        0.889111
 H        -1.198372        2.396287        0.000000
 H        -1.578466        0.919018       -0.889111
 O        -0.075612       -2.593240        0.000000
 H         0.069290       -3.167521       -0.754927
 H         0.069290       -3.167521        0.754927
9
 ch3sh_h2o_cs, factor= 1.05, energy= -2.28
 S         0.678036        0.958194        0.000000
 C        -1.097422        1.314396        0.000000
 H         0.557489       -0.371244        0.000000
 H        -1.578466        0.919018        0.889111
 H        -1.198372        2.396287        0.000000
 H        -1.578466        0.919018       -0.889111
 O        -0.107267       -2.704340        0.000000
 H         0.037635       -3.278621       -0.754927
 H         0.037635       -3.278621        0.754927
9
 ch3sh_h2o_cs, factor= 1.1, energy= -2.14
 S         0.678036        0.958194        0.000000
 C        -1.097422        1.314396        0.000000
 H         0.557489       -0.371244        0.000000
 H        -1.578466        0.919018        0.889111
 H        -1.198372        2.396287        0.000000
 H        -1.578466        0.919018       -0.889111
 O        -0.138922       -2.815440        0.000000
 H         0.005979       -3.389721       -0.754927
 H         0.005979       -3.389721        0.754927
9
 ch3sh_h2o_cs, factor= 1.25, energy= -1.62
 S         0.678036        0.958194        0.000000
 C        -1.097422        1.314396        0.000000
 H         0.557489       -0.371244        0.000000
 H        -1.578466        0.919018        0.889111
 H        -1.198372        2.396287        0.000000
 H        -1.578466        0.919018       -0.889111
 O        -0.233888       -3.148739        0.000000
 H        -0.088986       -3.723020       -0.754927
 H        -0.088986       -3.723020        0.754927
9
 ch3sh_h2o_cs, factor= 1.5, energy= -0.96
 S         0.678036        0.958194        0.000000
 C        -1.097422        1.314396        0.000000
 H         0.557489       -0.371244        0.000000
 H        -1.578466        0.919018        0.889111
 H        -1.198372        2.396287        0.000000
 H        -1.578466        0.919018       -0.889111
 O        -0.392163       -3.704238        0.000000
 H        -0.247261       -4.278519       -0.754927
 H        -0.247261       -4.278519        0.754927
9
 ch3sh_h2o_cs, factor= 2.0, energy= -0.39
 S         0.678036        0.958194        0.000000
 C        -1.097422        1.314396        0.000000
 H         0.557489       -0.371244        0.000000
 H        -1.578466        0.919018        0.889111
 H        -1.198372        2.396287        0.000000
 H        -1.578466        0.919018       -0.889111
 O        -0.708714       -4.815236        0.000000
 H        -0.563812       -5.389517       -0.754927
 H        -0.563812       -5.389517        0.754927
