6
 h2s_h2o_cs, factor= 0.9, energy= -2.39
 S         0.059888       -1.363007        0.000000
 H        -1.267296       -1.478023        0.000000
 H         0.002821       -0.027772        0.000000
 O        -0.013051        1.997220        0.000000
 H         0.214168        2.543200       -0.755525
 H         0.214168        2.543200        0.755525
6
 h2s_h2o_cs, factor= 0.95, energy= -2.63
 S         0.059888       -1.363007        0.000000
 H        -1.267296       -1.478023        0.000000
 H         0.002821       -0.027772        0.000000
 O        -0.013933        2.109720        0.000000
 H         0.213286        2.655699       -0.755525
 H         0.213286        2.655699        0.755525
6
 h2s_h2o_cs, factor= 1.0, energy= -2.66
 S         0.059888       -1.363007        0.000000
 H        -1.267296       -1.478023        0.000000
 H         0.002821       -0.027772        0.000000
 O        -0.014815        2.222219        0.000000
 H         0.212404        2.768199       -0.755525
 H         0.212404        2.768199        0.755525
6
 h2s_h2o_cs, factor= 1.05, energy= -2.58
 S         0.059888       -1.363007        0.000000
 H        -1.267296       -1.478023        0.000000
 H         0.002821       -0.027772        0.000000
 O        -0.015697        2.334719        0.000000
 H         0.211522        2.880698       -0.755525
 H         0.211522        2.880698        0.755525
6
 h2s_h2o_cs, factor= 1.1, energy= -2.43
 S         0.059888       -1.363007        0.000000
 H        -1.267296       -1.478023        0.000000
 H         0.002821       -0.027772        0.000000
 O        -0.016578        2.447218        0.000000
 H         0.210640        2.993198       -0.755525
 H         0.210640        2.993198        0.755525
6
 h2s_h2o_cs, factor= 1.25, energy= -1.86
 S         0.059888       -1.363007        0.000000
 H        -1.267296       -1.478023        0.000000
 H         0.002821       -0.027772        0.000000
 O        -0.019224        2.784717        0.000000
 H         0.207995        3.330697       -0.755525
 H         0.207995        3.330697        0.755525
6
 h2s_h2o_cs, factor= 1.5, energy= -1.10
 S         0.059888       -1.363007        0.000000
 H        -1.267296       -1.478023        0.000000
 H         0.002821       -0.027772        0.000000
 O        -0.023633        3.347215        0.000000
 H         0.203586        3.893195       -0.755525
 H         0.203586        3.893195        0.755525
6
 h2s_h2o_cs, factor= 2.0, energy= -0.44
 S         0.059888       -1.363007        0.000000
 H        -1.267296       -1.478023        0.000000
 H         0.002821       -0.027772        0.000000
 O        -0.032451        4.472210        0.000000
 H         0.194768        5.018190       -0.755525
 H         0.194768        5.018190        0.755525
