10
 ch3sh_nh3_cs, factor= 2.0, energy= -0.43
 S         0.688470        0.927763        0.000000
 C        -1.047914        1.441629        0.000000
 H         0.448624       -0.389852        0.000000
 H        -1.563201        1.091686        0.889402
 H        -1.054459        2.528211        0.000000
 H        -1.563201        1.091686       -0.889402
 N        -0.622366       -4.939878        0.000000
 H        -0.201520       -5.380112       -0.808104
 H        -0.201520       -5.380112        0.808104
 H        -1.592354       -5.227838        0.000000
