10
 ch3sh_h2co, factor= 0.9, energy= -2.84
 C        -1.151251        1.488626        0.056543
 S         0.651215        1.337311       -0.031735
 H        -1.360067        2.374376        0.650097
 H        -1.597552        0.627284        0.544269
 H        -1.582766        1.618991       -0.930693
 H         0.658434        0.213802       -0.752707
 C         0.186172       -2.052384        0.548006
 O        -0.014422       -1.859667       -0.632421
 H         0.019580       -3.037767        1.007280
 H         0.543273       -1.249719        1.209920
10
 ch3sh_h2co, factor= 0.95, energy= -3.10
 C        -1.151251        1.488626        0.056543
 S         0.651215        1.337311       -0.031735
 H        -1.360067        2.374376        0.650097
 H        -1.597552        0.627284        0.544269
 H        -1.582766        1.618991       -0.930693
 H         0.658434        0.213802       -0.752707
 C         0.148791       -2.167577        0.554689
 O        -0.051803       -1.974859       -0.625739
 H        -0.017801       -3.152960        1.013962
 H         0.505892       -1.364912        1.216603
10
 ch3sh_h2co, factor= 1.0, energy= -3.11
 C        -1.151251        1.488626        0.056543
 S         0.651215        1.337311       -0.031735
 H        -1.360067        2.374376        0.650097
 H        -1.597552        0.627284        0.544269
 H        -1.582766        1.618991       -0.930693
 H         0.658434        0.213802       -0.752707
 C         0.111410       -2.282770        0.561372
 O        -0.089184       -2.090052       -0.619056
 H        -0.055182       -3.268153        1.020645
 H         0.468512       -1.480104        1.223285
10
 ch3sh_h2co, factor= 1.05, energy= -2.97
 C        -1.151251        1.488626        0.056543
 S         0.651215        1.337311       -0.031735
 H        -1.360067        2.374376        0.650097
 H        -1.597552        0.627284        0.544269
 H        -1.582766        1.618991       -0.930693
 H         0.658434        0.213802       -0.752707
 C         0.074029       -2.397962        0.568054
 O        -0.126565       -2.205245       -0.612374
 H        -0.092563       -3.383345        1.027327
 H         0.431131       -1.595297        1.229968
10
 ch3sh_h2co, factor= 1.1, energy= -2.76
 C        -1.151251        1.488626        0.056543
 S         0.651215        1.337311       -0.031735
 H        -1.360067        2.374376        0.650097
 H        -1.597552        0.627284        0.544269
 H        -1.582766        1.618991       -0.930693
 H         0.658434        0.213802       -0.752707
 C         0.036648       -2.513155        0.574737
 O        -0.163946       -2.320437       -0.605691
 H        -0.129944       -3.498538        1.034010
 H         0.393750       -1.710490        1.236650
10
 ch3sh_h2co, factor= 1.25, energy= -2.01
 C        -1.151251        1.488626        0.056543
 S         0.651215        1.337311       -0.031735
 H        -1.360067        2.374376        0.650097
 H        -1.597552        0.627284        0.544269
 H        -1.582766        1.618991       -0.930693
 H         0.658434        0.213802       -0.752707
 C        -0.075494       -2.858733        0.594784
 O        -0.276089       -2.666016       -0.585644
 H        -0.242086       -3.844116        1.054058
 H         0.281607       -2.056068        1.256698
10
 ch3sh_h2co, factor= 1.5, energy= -1.09
 C        -1.151251        1.488626        0.056543
 S         0.651215        1.337311       -0.031735
 H        -1.360067        2.374376        0.650097
 H        -1.597552        0.627284        0.544269
 H        -1.582766        1.618991       -0.930693
 H         0.658434        0.213802       -0.752707
 C        -0.262399       -3.434697        0.628197
 O        -0.462993       -3.241979       -0.552231
 H        -0.428991       -4.420080        1.087470
 H         0.094703       -2.632031        1.290111
10
 ch3sh_h2co, factor= 2.0, energy= -0.37
 C        -1.151251        1.488626        0.056543
 S         0.651215        1.337311       -0.031735
 H        -1.360067        2.374376        0.650097
 H        -1.597552        0.627284        0.544269
 H        -1.582766        1.618991       -0.930693
 H         0.658434        0.213802       -0.752707
 C        -0.636208       -4.586623        0.695022
 O        -0.836802       -4.393906       -0.485405
 H        -0.802799       -5.572006        1.154296
 H        -0.279106       -3.783958        1.356936
