21
 ch3sch3_benzene_c2v, factor= 0.9, energy= -0.23
 S         0.000000        0.000000       -1.639862
 C         0.000000       -1.357444       -2.822962
 C         0.000000        1.357444       -2.822962
 H        -0.889712        1.330259       -3.449780
 H         0.000000        2.284255       -2.254048
 H         0.889712        1.330259       -3.449780
 H         0.889712       -1.330259       -3.449780
 H         0.000000       -2.284255       -2.254048
 H        -0.889712       -1.330259       -3.449780
 C         0.000000        1.392995        1.516342
 C        -1.207016        0.696489        1.517033
 C        -1.207016       -0.696489        1.517033
 C         0.000000       -1.392995        1.516342
 C         1.207016       -0.696489        1.517033
 C         1.207016        0.696489        1.517033
 H        -2.143728        1.236997        1.513977
 H        -2.143728       -1.236997        1.513977
 H         0.000000       -2.474747        1.516340
 H         2.143728       -1.236997        1.513977
 H         2.143728        1.236997        1.513977
 H         0.000000        2.474747        1.516340
21
 ch3sch3_benzene_c2v, factor= 0.95, energy= -0.90
 S         0.000000        0.000000       -1.639862
 C         0.000000       -1.357444       -2.822962
 C         0.000000        1.357444       -2.822962
 H        -0.889712        1.330259       -3.449780
 H         0.000000        2.284255       -2.254048
 H         0.889712        1.330259       -3.449780
 H         0.889712       -1.330259       -3.449780
 H         0.000000       -2.284255       -2.254048
 H        -0.889712       -1.330259       -3.449780
 C         0.000000        1.392995        1.691687
 C        -1.207016        0.696489        1.692377
 C        -1.207016       -0.696489        1.692377
 C         0.000000       -1.392995        1.691687
 C         1.207016       -0.696489        1.692377
 C         1.207016        0.696489        1.692377
 H        -2.143728        1.236997        1.689322
 H        -2.143728       -1.236997        1.689322
 H         0.000000       -2.474747        1.691685
 H         2.143728       -1.236997        1.689322
 H         2.143728        1.236997        1.689322
 H         0.000000        2.474747        1.691685
21
 ch3sch3_benzene_c2v, factor= 1.0, energy= -1.12
 S         0.000000        0.000000       -1.639862
 C         0.000000       -1.357444       -2.822962
 C         0.000000        1.357444       -2.822962
 H        -0.889712        1.330259       -3.449780
 H         0.000000        2.284255       -2.254048
 H         0.889712        1.330259       -3.449780
 H         0.889712       -1.330259       -3.449780
 H         0.000000       -2.284255       -2.254048
 H        -0.889712       -1.330259       -3.449780
 C         0.000000        1.392995        1.867031
 C        -1.207016        0.696489        1.867722
 C        -1.207016       -0.696489        1.867722
 C         0.000000       -1.392995        1.867031
 C         1.207016       -0.696489        1.867722
 C         1.207016        0.696489        1.867722
 H        -2.143728        1.236997        1.864666
 H        -2.143728       -1.236997        1.864666
 H         0.000000       -2.474747        1.867030
 H         2.143728       -1.236997        1.864666
 H         2.143728        1.236997        1.864666
 H         0.000000        2.474747        1.867030
21
 ch3sch3_benzene_c2v, factor= 1.05, energy= -1.09
 S         0.000000        0.000000       -1.639862
 C         0.000000       -1.357444       -2.822962
 C         0.000000        1.357444       -2.822962
 H        -0.889712        1.330259       -3.449780
 H         0.000000        2.284255       -2.254048
 H         0.889712        1.330259       -3.449780
 H         0.889712       -1.330259       -3.449780
 H         0.000000       -2.284255       -2.254048
 H        -0.889712       -1.330259       -3.449780
 C         0.000000        1.392995        2.042376
 C        -1.207016        0.696489        2.043067
 C        -1.207016       -0.696489        2.043067
 C         0.000000       -1.392995        2.042376
 C         1.207016       -0.696489        2.043067
 C         1.207016        0.696489        2.043067
 H        -2.143728        1.236997        2.040011
 H        -2.143728       -1.236997        2.040011
 H         0.000000       -2.474747        2.042374
 H         2.143728       -1.236997        2.040011
 H         2.143728        1.236997        2.040011
 H         0.000000        2.474747        2.042374
21
 ch3sch3_benzene_c2v, factor= 1.1, energy= -0.95
 S         0.000000        0.000000       -1.639862
 C         0.000000       -1.357444       -2.822962
 C         0.000000        1.357444       -2.822962
 H        -0.889712        1.330259       -3.449780
 H         0.000000        2.284255       -2.254048
 H         0.889712        1.330259       -3.449780
 H         0.889712       -1.330259       -3.449780
 H         0.000000       -2.284255       -2.254048
 H        -0.889712       -1.330259       -3.449780
 C         0.000000        1.392995        2.217721
 C        -1.207016        0.696489        2.218411
 C        -1.207016       -0.696489        2.218411
 C         0.000000       -1.392995        2.217721
 C         1.207016       -0.696489        2.218411
 C         1.207016        0.696489        2.218411
 H        -2.143728        1.236997        2.215355
 H        -2.143728       -1.236997        2.215355
 H         0.000000       -2.474747        2.217719
 H         2.143728       -1.236997        2.215355
 H         2.143728        1.236997        2.215355
 H         0.000000        2.474747        2.217719
21
 ch3sch3_benzene_c2v, factor= 1.25, energy= -0.46
 S         0.000000        0.000000       -1.639862
 C         0.000000       -1.357444       -2.822962
 C         0.000000        1.357444       -2.822962
 H        -0.889712        1.330259       -3.449780
 H         0.000000        2.284255       -2.254048
 H         0.889712        1.330259       -3.449780
 H         0.889712       -1.330259       -3.449780
 H         0.000000       -2.284255       -2.254048
 H        -0.889712       -1.330259       -3.449780
 C         0.000000        1.392995        2.743754
 C        -1.207016        0.696489        2.744445
 C        -1.207016       -0.696489        2.744445
 C         0.000000       -1.392995        2.743754
 C         1.207016       -0.696489        2.744445
 C         1.207016        0.696489        2.744445
 H        -2.143728        1.236997        2.741389
 H        -2.143728       -1.236997        2.741389
 H         0.000000       -2.474747        2.743753
 H         2.143728       -1.236997        2.741389
 H         2.143728        1.236997        2.741389
 H         0.000000        2.474747        2.743753
21
 ch3sch3_benzene_c2v, factor= 1.5, energy= -0.04
 S         0.000000        0.000000       -1.639862
 C         0.000000       -1.357444       -2.822962
 C         0.000000        1.357444       -2.822962
 H        -0.889712        1.330259       -3.449780
 H         0.000000        2.284255       -2.254048
 H         0.889712        1.330259       -3.449780
 H         0.889712       -1.330259       -3.449780
 H         0.000000       -2.284255       -2.254048
 H        -0.889712       -1.330259       -3.449780
 C         0.000000        1.392995        3.620478
 C        -1.207016        0.696489        3.621168
 C        -1.207016       -0.696489        3.621168
 C         0.000000       -1.392995        3.620478
 C         1.207016       -0.696489        3.621168
 C         1.207016        0.696489        3.621168
 H        -2.143728        1.236997        3.618113
 H        -2.143728       -1.236997        3.618113
 H         0.000000       -2.474747        3.620476
 H         2.143728       -1.236997        3.618113
 H         2.143728        1.236997        3.618113
 H         0.000000        2.474747        3.620476
21
 ch3sch3_benzene_c2v, factor= 2.0, energy= 0.08
 S         0.000000        0.000000       -1.639862
 C         0.000000       -1.357444       -2.822962
 C         0.000000        1.357444       -2.822962
 H        -0.889712        1.330259       -3.449780
 H         0.000000        2.284255       -2.254048
 H         0.889712        1.330259       -3.449780
 H         0.889712       -1.330259       -3.449780
 H         0.000000       -2.284255       -2.254048
 H        -0.889712       -1.330259       -3.449780
 C         0.000000        1.392995        5.373924
 C        -1.207016        0.696489        5.374615
 C        -1.207016       -0.696489        5.374615
 C         0.000000       -1.392995        5.373924
 C         1.207016       -0.696489        5.374615
 C         1.207016        0.696489        5.374615
 H        -2.143728        1.236997        5.371559
 H        -2.143728       -1.236997        5.371559
 H         0.000000       -2.474747        5.373923
 H         2.143728       -1.236997        5.371559
 H         2.143728        1.236997        5.371559
 H         0.000000        2.474747        5.373923
