12
 formamide_ch3sh, factor= 0.9, energy= -5.61
 C         1.152285        1.504542       -0.486178
 S        -0.483922        1.867145        0.206910
 H         1.071252        1.676116       -1.556110
 H         1.422769        0.468990       -0.302374
 H         1.898584        2.178873       -0.079115
 H        -0.194151        1.535812        1.465591
 C         0.024675       -2.027653        0.047512
 O         1.087117       -1.559925        0.420420
 N        -1.076560       -1.307355       -0.264032
 H        -1.924231       -1.771419       -0.528883
 H        -1.067642       -0.301749       -0.153701
 H        -0.130580       -3.109830       -0.078122
12
 formamide_ch3sh, factor= 0.95, energy= -6.24
 C         1.152285        1.504542       -0.486178
 S        -0.483922        1.867145        0.206910
 H         1.071252        1.676116       -1.556110
 H         1.422769        0.468990       -0.302374
 H         1.898584        2.178873       -0.079115
 H        -0.194151        1.535812        1.465591
 C        -0.007754       -2.148147        0.027478
 O         1.054688       -1.680419        0.400386
 N        -1.108989       -1.427849       -0.284066
 H        -1.956660       -1.891913       -0.548917
 H        -1.100071       -0.422243       -0.173735
 H        -0.163009       -3.230324       -0.098156
12
 formamide_ch3sh, factor= 1.0, energy= -6.33
 C         1.152285        1.504542       -0.486178
 S        -0.483922        1.867145        0.206910
 H         1.071252        1.676116       -1.556110
 H         1.422769        0.468990       -0.302374
 H         1.898584        2.178873       -0.079115
 H        -0.194151        1.535812        1.465591
 C        -0.040183       -2.268641        0.007444
 O         1.022259       -1.800914        0.380352
 N        -1.141418       -1.548343       -0.304100
 H        -1.989089       -2.012407       -0.568951
 H        -1.132499       -0.542737       -0.193769
 H        -0.195437       -3.350818       -0.118190
12
 formamide_ch3sh, factor= 1.05, energy= -6.10
 C         1.152285        1.504542       -0.486178
 S        -0.483922        1.867145        0.206910
 H         1.071252        1.676116       -1.556110
 H         1.422769        0.468990       -0.302374
 H         1.898584        2.178873       -0.079115
 H        -0.194151        1.535812        1.465591
 C        -0.072612       -2.389136       -0.012590
 O         0.989830       -1.921408        0.360318
 N        -1.173846       -1.668838       -0.324134
 H        -2.021518       -2.132901       -0.588985
 H        -1.164928       -0.663231       -0.213803
 H        -0.227866       -3.471312       -0.138224
12
 formamide_ch3sh, factor= 1.1, energy= -5.70
 C         1.152285        1.504542       -0.486178
 S        -0.483922        1.867145        0.206910
 H         1.071252        1.676116       -1.556110
 H         1.422769        0.468990       -0.302374
 H         1.898584        2.178873       -0.079115
 H        -0.194151        1.535812        1.465591
 C        -0.105041       -2.509630       -0.032624
 O         0.957401       -2.041902        0.340284
 N        -1.206275       -1.789332       -0.344168
 H        -2.053946       -2.253395       -0.609019
 H        -1.197357       -0.783725       -0.233837
 H        -0.260295       -3.591806       -0.158258
12
 formamide_ch3sh, factor= 1.25, energy= -4.21
 C         1.152285        1.504542       -0.486178
 S        -0.483922        1.867145        0.206910
 H         1.071252        1.676116       -1.556110
 H         1.422769        0.468990       -0.302374
 H         1.898584        2.178873       -0.079115
 H        -0.194151        1.535812        1.465591
 C        -0.202327       -2.871112       -0.092726
 O         0.860115       -2.403384        0.280182
 N        -1.303562       -2.150814       -0.404270
 H        -2.151233       -2.614877       -0.669121
 H        -1.294644       -1.145207       -0.293939
 H        -0.357582       -3.953288       -0.218360
12
 formamide_ch3sh, factor= 1.5, energy= -2.32
 C         1.152285        1.504542       -0.486178
 S        -0.483922        1.867145        0.206910
 H         1.071252        1.676116       -1.556110
 H         1.422769        0.468990       -0.302374
 H         1.898584        2.178873       -0.079115
 H        -0.194151        1.535812        1.465591
 C        -0.364471       -3.473582       -0.192896
 O         0.697971       -3.005855        0.180012
 N        -1.465706       -2.753284       -0.504440
 H        -2.313377       -3.217348       -0.769291
 H        -1.456788       -1.747678       -0.394109
 H        -0.519726       -4.555759       -0.318530
12
 formamide_ch3sh, factor= 2.0, energy= -0.80
 C         1.152285        1.504542       -0.486178
 S        -0.483922        1.867145        0.206910
 H         1.071252        1.676116       -1.556110
 H         1.422769        0.468990       -0.302374
 H         1.898584        2.178873       -0.079115
 H        -0.194151        1.535812        1.465591
 C        -0.688760       -4.678523       -0.393235
 O         0.373682       -4.210795       -0.020327
 N        -1.789994       -3.958225       -0.704779
 H        -2.637666       -4.422289       -0.969630
 H        -1.781076       -2.952619       -0.594448
 H        -0.844014       -5.760700       -0.518869
